
Running Job 1 of 1 cvs-adc1_test.inp
qchem cvs-adc1_test.inp_29237.0 /scratch/qchem/qchem29237/ 1
/mnt/software/qchem/bin/mpi/mpirun_qchem -machinefile /mnt/software/qchem/bin/mpi/machines -np 1 /mnt/software/qchem/exe/qcprog.exe cvs-adc1_test.inp_29237.0 /scratch/qchem/qchem29237/

Process 0 of 1 is on tp-linux1 - thread support 0
initial socket setup ...start
initial socket setup ...done 
now start server 0 ... 

cmd = ssh tp-linux1 /mnt/software/qchem/bin/get_hostid 1687619037 > /scratch/qchem/qchem29237/lic.dat
                  Welcome to Q-Chem
     A Quantum Leap Into The Future Of Chemistry


 Q-Chem 4.3, Q-Chem, Inc., Pleasanton, CA (2015)

 Y. Shao,  Z. Gan,  E. Epifanovsky,  A. T. B. Gilbert,  M. Wormit,  
 J. Kussmann,  A. W. Lange,  A. Behn,  J. Deng,  X. Feng,  D. Ghosh,  
 M. Goldey,  P. R. Horn,  L. D. Jacobson,  I. Kaliman,  R. Z. Khaliullin,  
 T. Kus,  A. Landau,  J. Liu,  E. I. Proynov,  Y. M. Rhee,  R. M. Richard,  
 M. A. Rohrdanz,  R. P. Steele,  E. J. Sundstrom,  H. L. Woodcock III,  
 P. M. Zimmerman,  D. Zuev,  B. Albrecht,  E. Alguire,  B. Austin,  
 S. A. Baeppler,  G. J. O. Beran,  Y. A. Bernard,  E. Berquist,  
 K. Brandhorst,  K. B. Bravaya,  S. T. Brown,  D. Casanova,  C.-M. Chang,  
 Y. Chen,  S. H. Chien,  K. D. Closser,  D. L. Crittenden,  M. Diedenhofen,  
 R. A. DiStasio Jr.,  H. Do,  A. D. Dutoi,  R. G. Edgar,  P.-T. Fang,  
 S. Fatehi,  Q. Feng,  L. Fusti-Molnar,  A. Ghysels,  
 A. Golubeva-Zadorozhnaya,  J. Gomes,  A. Gunina,  M. W. D. Hanson-Heine,  
 P. H. P. Harbach,  A. W. Hauser,  E. G. Hohenstein,  Z. C. Holden,  K. Hui,  
 T.-C. Jagau,  H. Ji,  B. Kaduk,  K. Khistyaev,  Jaehoon Kim,  Jihan Kim,  
 R. A. King,  P. Klunzinger,  D. Kosenkov,  T. Kowalczyk,  C. M. Krauter,  
 K. U. Lao,  A. Laurent,  K. V. Lawler,  S. Lehtola,  S. V. Levchenko,  
 C. Y. Lin,  Y.-S. Lin,  F. Liu,  E. Livshits,  R. C. Lochan,  A. Luenser,  
 P. Manohar,  S. F. Manzer,  S.-P. Mao,  N. Mardirossian,  A. V. Marenich,  
 L. A. Martinez-Martinez,  S. A. Maurer,  N. J. Mayhall,  K. Nanda,  
 C. M. Oana,  R. Olivares-Amaya,  D. P. O'Neill,  J. A. Parkhill,  
 T. M. Perrine,  R. Peverati,  P. A. Pieniazek,  F. Plasser,  A. Prociuk,  
 D. R. Rehn,  E. Rosta,  N. J. Russ,  N. Sergueev,  S. M. Sharada,  
 S. Sharma,  D. W. Small,  A. Sodt,  T. Stauch,  T. Stein,  D. Stuck,  
 Y.-C. Su,  A. J. W. Thom,  T. Tsuchimochi,  L. Vogt,  O. Vydrov,  T. Wang,  
 M. A. Watson,  J. Wenzel,  A. White,  C. F. Williams,  V. Vanovschi,  
 S. Yeganeh,  S. R. Yost,  Z.-Q. You,  I. Y. Zhang,  X. Zhang,  Y. Zhao,  
 B. R. Brooks,  G. K. L. Chan,  D. M. Chipman,  C. J. Cramer,  
 W. A. Goddard III,  M. S. Gordon,  W. J. Hehre,  A. Klamt,  
 H. F. Schaefer III,  M. W. Schmidt,  C. D. Sherrill,  D. G. Truhlar,  
 A. Warshel,  X. Xu,  A. Aspuru-Guzik,  R. Baer,  A. T. Bell,  N. A. Besley,  
 J.-D. Chai,  A. Dreuw,  B. D. Dunietz,  T. R. Furlani,  S. R. Gwaltney,  
 C.-P. Hsu,  Y. Jung,  J. Kong,  D. S. Lambrecht,  W. Liang,  C. Ochsenfeld,  
 V. A. Rassolov,  L. V. Slipchenko,  J. E. Subotnik,  T. Van Voorhis,  
 J. M. Herbert,  A. I. Krylov,  P. M. W. Gill,  M. Head-Gordon

 Contributors to earlier versions of Q-Chem not listed above: 
 R. D. Adamson,  J. Baker,  E. F. C. Byrd,  A. K. Chakraborty,  C.-L. Cheng,  
 H. Dachsel,  R. J. Doerksen,  G. Hawkins,  A. Heyden,  S. Hirata,  
 G. Kedziora,  F. J. Keil,  C. Kelley,  P. P. Korambath,  W. Kurlancheek,  
 A. M. Lee,  M. S. Lee,  D. Liotard,  I. Lotan,  P. E. Maslen,  N. Nair,  
 D. Neuhauser,  R. Olson,  B. Peters,  J. Ritchie,  N. E. Schultz,  
 N. Shenvi,  A. C. Simmonett,  K. S. Thanthiriwatte,  Q. Wu,  W. Zhang

 Please cite Q-Chem as follows:
 Y. Shao et al., Mol. Phys. 113, 184-215 (2015)
 DOI: 10.1080/00268976.2014.952696

 Q-Chem 4.3.0 for Intel X86 Linux

 Parts of Q-Chem use Armadillo 5.200.1 (Boston Tea Smuggler).
 http://arma.sourceforge.net/

 Q-Chem begins on Tue Mar  7 16:39:35 2017  

Host: 
0

     Scratch files written to /scratch/qchem/qchem29237//
 Nov1815 1189b_ 19540  19532 5443   
 Parallel job on  1  processors
Processing $rem in /mnt/software/qchem/config/preferences.
 MEM_TOTAL  2000 

Checking the input file for inconsistencies... 	...done.

--------------------------------------------------------------
User input:
--------------------------------------------------------------
$comment
job3 - cvs-adc(2)-x calculation with mom to prevent collapse to ground state
$end

$molecule
1 2
C    -0.69934   2.34967   0.00000
F     0.60215   2.34967  -0.00000
F    -1.13316   3.29245   0.78541
F    -1.13317   1.19810   0.42375
F    -1.13317   2.55847  -1.20916
$end

$rem
mem_total 3000
mem_static 1500
sym_ignore true
method cvs-adc(1)
basis 6-31G*
ee_singlets 30
cc_rest_occ 5                  !only excitations from the 5th orbital (C 1s)
unrestricted  true
ADC_CVS true
max_scf_cycles 200
$end

--------------------------------------------------------------
 ----------------------------------------------------------------
             Standard Nuclear Orientation (Angstroms)
    I     Atom           X                Y                Z
 ----------------------------------------------------------------
    1      C      -0.6993400000     2.3496700000     0.0000000000
    2      F       0.6021500000     2.3496700000     0.0000000000
    3      F      -1.1331600000     3.2924500000     0.7854100000
    4      F      -1.1331700000     1.1981000000     0.4237500000
    5      F      -1.1331700000     2.5584700000    -1.2091600000
 ----------------------------------------------------------------
 Nuclear Repulsion Energy =   208.8311212848 hartrees
 There are       21 alpha and       20 beta electrons
 Requested basis set is 6-31G(d)
 There are 20 shells and 75 basis functions

 Total QAlloc Memory Limit   3000 MB
 Mega-Array Size      1467 MB
 MEM_STATIC part      1500 MB

                       Distance Matrix (Angstroms)
             C (  1)   F (  2)   F (  3)   F (  4)
   F (  2)  1.301490
   F (  3)  1.301500  2.125324
   F (  4)  1.301494  2.125327  2.125347
   F (  5)  1.301489  2.125324  2.125332  2.125324
 
 tim1(1): 
  0.000000000000000E+000
 tim1(2): 
  0.000000000000000E+000
 A cutoff of  1.0D-11 yielded    204 shell pairs
 There are      2979 function pairs
 
 -------------------------------------------------------
 OpenMP Integral Computing Module                       
 Release: version 1.0, May 2013, Q-Chem Inc. Pittsburgh 
 -------------------------------------------------------
 Integral Job Info:
 Integral job number is                      11
 Integral operator is                         1
 short-range coefficients                     0
 long-range coefficients              100000000
 Omega coefficients                           0
 if combine SR and LR in K                    0
 Integral screening is                        0
 Integral computing path is                   2
 max size of driver memory is            800000
 size of driver memory is                593474
 size of scratch memory is              2260544
 max col of scratch BK array               1296
 max len of scratch array in speh3          155
 max len of scratch index in speh4           18
 max int batch size is                      520
 min int batch size is                       52
 fixed nKL is                                52
 max L of basis functions is                  2
 order of int derivative is                   0
 number of shells is                         20
 number of basis is                          75
 number of cartesian basis is                75
 number of contracted shell pairs           204
 number of primitive shell pairs           1074
 maxK2 (contraction) of shell pair           36
 max number of K2 of shell pair               1
 max number of CS2 of shell pair             37
 max number of PS2 of shell pair            222
 mem total for path MDJ                   21832
 -------------------------------------------------------
 Smallest overlap matrix eigenvalue = 1.75E-03

 Scale SEOQF with 1.000000e+00/1.000000e-01/1.000000e+00

 Standard Electronic Orientation quadrupole field applied
 Nucleus-field energy     =     0.0000000108 hartrees
 Guess from superposition of atomic densities
 Warning:  Energy on first SCF cycle will be non-variational
 An unrestricted Hartree-Fock SCF calculation will be
 performed using Pulay DIIS extrapolation
 SCF converges when DIIS error is below 1.0E-08
 ---------------------------------------
  Cycle       Energy         DIIS Error
 ---------------------------------------
    1    -436.6440699958      8.95E-02
    2    -434.8131118583      1.82E-02
    3    -434.9800953165      8.16E-03
    4    -435.0150647222      2.04E-03
    5    -435.0198896540      8.12E-04
    6    -435.0268364200      1.24E-03
    7    -435.0247796939      1.24E-03
    8    -435.0137067473      5.42E-04
    9    -435.0139807911      6.14E-04
   10    -435.0144159454      5.92E-04
   11    -435.0121793868      4.04E-04
   12    -435.0107291402      1.97E-04
   13    -435.0109398700      2.19E-04
   14    -435.0111268324      2.32E-04
   15    -435.0104219014      1.16E-04
   16    -435.0102667415      1.04E-04
   17    -435.0104498414      1.32E-04
   18    -435.0104430888      1.05E-04
   19    -435.0105056144      7.74E-05
   20    -435.0106153211      4.69E-05
   21    -435.0107273987      3.82E-05
   22    -435.0108316986      3.26E-05
   23    -435.0109182982      3.26E-05
   24    -435.0109459477      1.98E-05
   25    -435.0109617240      1.86E-05
   26    -435.0109758098      3.08E-05
   27    -435.0109790568      1.68E-05
   28    -435.0109994400      1.13E-05
   29    -435.0110043086      7.28E-06
   30    -435.0110062460      7.47E-06
   31    -435.0110069823      5.94E-06
   32    -435.0110073624      3.17E-06
   33    -435.0110076286      3.28E-06
   34    -435.0110077563      2.69E-06
   35    -435.0110079567      1.69E-06
   36    -435.0110081278      1.76E-06
   37    -435.0110082710      1.28E-06
   38    -435.0110084083      1.09E-06
   39    -435.0110085062      8.08E-07
   40    -435.0110085254      2.31E-07
   41    -435.0110085294      1.42E-07
   42    -435.0110085297      5.82E-08
   43    -435.0110085297      4.45E-08
   44    -435.0110085298      3.12E-08
   45    -435.0110085298      2.33E-08
   46    -435.0110085298      1.76E-08
   47    -435.0110085298      1.19E-08
   48    -435.0110085298      7.48E-09 Convergence criterion met
 ---------------------------------------
 <S^2> = 0.7769
 SCF time:  CPU 6.11 s  wall 13.29 s
 SCF   energy in the final basis set = -435.0110085298
 Total energy in the final basis set = -435.0110085298
================================================================================
|                                                                              |
|                                 A D C  M A N                                 |
|                                                                              |
 ------------------------------------------------------------------------------ 
|                                                                              |
| Components:                                                                  |
|                                                                              |
| - libvmm - 1.2-release                                                       |
|   Authors:                                                                   |
|   Evgeny Epifanovsky, Ilya Kaliman                                           |
|                                                                              |
| - libtensor - 2.4-trunk                                                      |
|   Authors:                                                                   |
|   Evgeny Epifanovsky, Michael Wormit, Dmitry Zuev, Sam Manzer                |
|                                                                              |
| - libwfa - 1.1-beta                                                          |
|   Authors:                                                                   |
|   Felix Plasser, Stefanie Baeppler, Benjamin Thomitzni, Michael Wormit       |
|                                                                              |
| - libadc - 1.0-beta                                                          |
|   Authors:                                                                   |
|   Michael Wormit, Philipp H. P. Harbach, Caroline Krauter, Dirk Rehn,        |
|   Matthias Schneider, Jan Wenzel                                             |
|                                                                              |
| - adcman - 2.4-beta                                                          |
|   Authors:                                                                   |
|   Michael Wormit, Philipp H. P. Harbach, Caroline Krauter, Dirk Rehn,        |
|   Jan Wenzel, Andreas Dreuw                                                  |
|                                                                              |
| Authors of earlier versions of ADCMAN:                                       |
| Andreas Dreuw, Jan Hendrik Starcke, Dirk Rehn, Michael Wormit                |
|                                                                              |
================================================================================

 
 Alpha MOs, Unrestricted
 -- Occupied --                  
-26.764 -26.764 -26.764 -26.763 -11.947  -2.177  -2.049  -2.049
  1 A     2 A     3 A     4 A     5 A     6 A     7 A     8 A                  
 -2.048  -1.351  -1.245  -1.245  -1.237  -1.145  -1.112  -1.076
  9 A    10 A    11 A    12 A    13 A    14 A    15 A    16 A                  
 -1.076  -1.067  -1.057  -1.036  -1.036
 17 A    18 A    19 A    20 A    21 A                                          
 -- Virtual --                   
  0.106   0.106   0.111   0.117   0.376   0.376   0.377   0.378
 22 A    23 A    24 A    25 A    26 A    27 A    28 A    29 A                  
  0.943   0.961   1.005   1.005   1.006   1.109   1.251   1.261
 30 A    31 A    32 A    33 A    34 A    35 A    36 A    37 A                  
  1.282   1.296   1.296   1.342   1.342   1.352   1.488   1.488
 38 A    39 A    40 A    41 A    42 A    43 A    44 A    45 A                  
  1.492   1.760   1.763   1.763   1.786   1.787   1.906   1.908
 46 A    47 A    48 A    49 A    50 A    51 A    52 A    53 A                  
  1.908   1.972   1.972   1.977   2.048   2.058   2.058   2.273
 54 A    55 A    56 A    57 A    58 A    59 A    60 A    61 A                  
  2.603   2.603   2.609   2.829   2.839   3.054   3.097   3.097
 62 A    63 A    64 A    65 A    66 A    67 A    68 A    69 A                  
  3.098   4.388   4.420   4.420   4.424   6.000
 70 A    71 A    72 A    73 A    74 A    75 A                                  
 
 Beta MOs, Unrestricted
 -- Occupied --                  
-26.745 -26.745 -26.745 -26.745 -11.949  -2.139  -1.995  -1.994
  1 A     2 A     3 A     4 A     5 A     6 A     7 A     8 A                  
 -1.994  -1.332  -1.223  -1.203  -1.203  -1.096  -1.043  -1.024
  9 A    10 A    11 A    12 A    13 A    14 A    15 A    16 A                  
 -1.024  -0.943  -0.899  -0.899
 17 A    18 A    19 A    20 A                                                  
 -- Virtual --                   
 -0.596   0.114   0.125   0.130   0.130   0.375   0.377   0.379
 21 A    22 A    23 A    24 A    25 A    26 A    27 A    28 A                  
  0.379   0.967   1.011   1.015   1.017   1.017   1.114   1.260
 29 A    30 A    31 A    32 A    33 A    34 A    35 A    36 A                  
  1.265   1.315   1.315   1.342   1.355   1.368   1.368   1.501
 37 A    38 A    39 A    40 A    41 A    42 A    43 A    44 A                  
  1.501   1.508   1.782   1.782   1.783   1.806   1.811   1.916
 45 A    46 A    47 A    48 A    49 A    50 A    51 A    52 A                  
  1.919   1.919   1.983   1.988   1.988   2.070   2.070   2.077
 53 A    54 A    55 A    56 A    57 A    58 A    59 A    60 A                  
  2.280   2.613   2.617   2.617   2.838   2.838   3.064   3.104
 61 A    62 A    63 A    64 A    65 A    66 A    67 A    68 A                  
  3.104   3.104   4.387   4.430   4.430   4.432   6.005
 69 A    70 A    71 A    72 A    73 A    74 A    75 A                          
 

--------------------------------------------------------------------------------
                                   HF Summary                                   
--------------------------------------------------------------------------------
  Energy:                                                 -435.0110085298 a.u.
  Dip. moment [a.u.]:                  [ -54.183838,  182.049726,    0.000021]
  Total dipole [Debye]:                                             482.784684
  <r^2> [a.u.]:                        [ 159.449868,  896.143475,   87.888087]
  Total <r^2> [a.u.]:                                              1143.481430
--------------------------------------------------------------------------------
  Starting Davidson ... 
--------------------------------------------------------------------------------
   It NVec Conv  Avg. Norm  Max. Norm  Conv. states           Remark
--------------------------------------------------------------------------------
        30    0  3.599e-02  3.950e-01 10.9690 n n n n n n n n Guess.
    1   60    0  1.197e-02  1.300e-01 10.9669 n n n n n n n n 
    2   90    0  5.713e-03  1.379e-01 10.9669 n n n n n n n n 
    3  120    0  4.840e-03  7.280e-02 10.9669 n n n n n n n n 
    4  150    0  3.710e-04  5.323e-03 10.9669 n n n n n n n n 
    5   60    4  5.108e-05  8.205e-04 10.9669 n n n n n n n y Subspace collapsed.
    6   90    7  5.949e-05  1.164e-03 10.9669 n y n n n n n y 
    7  120   11  1.674e-05  2.950e-04 10.9669 y y n n y n n y 
    8  150   19  2.896e-06  5.434e-05 10.9669 y y y y y y y y 
    9   60   22  2.547e-06  4.374e-05 10.9669 y y y y y y y y Subspace collapsed.
   10   70   24  1.406e-06  2.328e-05 10.9669 y y y y y y y y 
   11   78   24  1.462e-06  2.605e-05 10.9669 y y y y y y y y 
   12   86   24  1.006e-06  1.647e-05 10.9669 y y y y y y y y 
   13   94   24  9.008e-07  1.588e-05 10.9669 y y y y y y y y 
   14  103   24  7.823e-07  1.375e-05 10.9669 y y y y y y y y 
   15  110   25  6.283e-07  1.180e-05 10.9669 y y y y y y y y 
   16  117   25  5.618e-07  1.061e-05 10.9669 y y y y y y y y 
   17  123   25  4.458e-07  9.186e-06 10.9669 y y y y y y y y 
   18  147   25  4.144e-07  9.946e-06 10.9669 y y y y y y y y 
   19  150   25  3.031e-07  6.205e-06 10.9669 y y y y y y y y 
   20   50   26  1.578e-07  3.338e-06 10.9669 y y y y y y y y Subspace collapsed.
   21   69   26  1.227e-07  2.045e-06 10.9669 y y y y y y y y 
   22   88   29  5.819e-08  1.182e-06 10.9669 y y y y y y y y 
   23  107   29  5.496e-08  1.183e-06 10.9669 y y y y y y y y 
   24  125   30  3.347e-08  7.642e-07 10.9669 y y y y y y y y Converged.
--------------------------------------------------------------------------------
  Davidson Summary: 
 ------------------------------------------------------------
  State  0: excitation energy =  10.9669 a.u.   (converged)
  State  1: excitation energy =  11.1872 a.u.   (converged)
  State  2: excitation energy =  11.1902 a.u.   (converged)
  State  3: excitation energy =  11.1902 a.u.   (converged)
  State  4: excitation energy =  11.2798 a.u.   (converged)
  State  5: excitation energy =  11.2854 a.u.   (converged)
  State  6: excitation energy =  11.2854 a.u.   (converged)
  State  7: excitation energy =  11.3187 a.u.   (converged)
  State  8: excitation energy =  11.4606 a.u.   (converged)
  State  9: excitation energy =  11.8582 a.u.   (converged)
  State 10: excitation energy =  11.8732 a.u.   (converged)
  State 11: excitation energy =  11.8789 a.u.   (converged)
  State 12: excitation energy =  11.8789 a.u.   (converged)
  State 13: excitation energy =  11.8795 a.u.   (converged)
  State 14: excitation energy =  11.8907 a.u.   (converged)
  State 15: excitation energy =  11.9012 a.u.   (converged)
  State 16: excitation energy =  11.9012 a.u.   (converged)
  State 17: excitation energy =  12.3974 a.u.   (converged)
  State 18: excitation energy =  12.4121 a.u.   (converged)
  State 19: excitation energy =  12.4162 a.u.   (converged)
  State 20: excitation energy =  12.4506 a.u.   (converged)
  State 21: excitation energy =  12.5981 a.u.   (converged)
  State 22: excitation energy =  12.5981 a.u.   (converged)
  State 23: excitation energy =  12.5987 a.u.   (converged)
  State 24: excitation energy =  12.6101 a.u.   (converged)
  State 25: excitation energy =  12.6110 a.u.   (converged)
  State 26: excitation energy =  12.6110 a.u.   (converged)
  State 27: excitation energy =  12.7429 a.u.   (converged)
  State 28: excitation energy =  12.7506 a.u.   (converged)
  State 29: excitation energy =  12.7530 a.u.   (converged)
 ------------------------------------------------------------


--------------------------------------------------------------------------------
                             Excited State Summary
--------------------------------------------------------------------------------

  Excited state  1 (A)                                             [converged]
  ----------------------------------------------------------------------------
  Term symbol:  2 (-) A                                     R^2 =  2.83054e-12

  Total energy:                                           -424.0441515795 a.u.
  Excitation energy:                                             298.423355 eV

  Osc. strength:                                                      0.000000
  Trans. dip. moment [a.u.]:           [  -0.000000,   -0.000000,    0.000000]
  <i|r^2|0> [a.u.]:                    [   0.000000,   -0.000001,   -0.000000]

  Important amplitudes:
     core i     occ j      vir a      vir b          v   
    ------------------------------------------------------
     5 (A) B              21 (A) B                 0.9995
     5 (A) B              40 (A) B                -0.0227
    ------------------------------------------------------
  ----------------------------------------------------------------------------


  Excited state  2 (A)                                             [converged]
  ----------------------------------------------------------------------------
  Term symbol:  3 (-) A                                     R^2 =  1.15377e-12

  Total energy:                                           -423.8238395230 a.u.
  Excitation energy:                                             304.418351 eV

  Osc. strength:                                                      0.000528
  Trans. dip. moment [a.u.]:           [   0.004862,    0.001158,   -0.006771]
  <i|r^2|0> [a.u.]:                    [  -0.013057,    0.010579,   -0.000091]

  Important amplitudes:
     core i     occ j      vir a      vir b          v   
    ------------------------------------------------------
     5 (A) A              24 (A) A                -0.6446
     5 (A) B              22 (A) B                 0.5715
    ------------------------------------------------------
  ----------------------------------------------------------------------------


  Excited state  3 (A)                                             [converged]
  ----------------------------------------------------------------------------
  Term symbol:  4 (-) A                                     R^2 =  5.79027e-12

  Total energy:                                           -423.8208519032 a.u.
  Excitation energy:                                             304.499648 eV

  Osc. strength:                                                      0.002300
  Trans. dip. moment [a.u.]:           [  -0.004908,    0.016846,   -0.000620]
  <i|r^2|0> [a.u.]:                    [   0.013281,    0.149839,   -0.000544]

  Important amplitudes:
     core i     occ j      vir a      vir b          v   
    ------------------------------------------------------
     5 (A) A              22 (A) A                 0.6004
     5 (A) B              24 (A) B                -0.4547
    ------------------------------------------------------
  ----------------------------------------------------------------------------


  Excited state  4 (A)                                             [converged]
  ----------------------------------------------------------------------------
  Term symbol:  5 (-) A                                     R^2 =  2.21044e-12

  Total energy:                                           -423.8208485499 a.u.
  Excitation energy:                                             304.499739 eV

  Osc. strength:                                                      0.002300
  Trans. dip. moment [a.u.]:           [   0.013468,    0.004307,    0.010408]
  <i|r^2|0> [a.u.]:                    [  -0.036442,    0.038366,    0.000730]

  Important amplitudes:
     core i     occ j      vir a      vir b          v   
    ------------------------------------------------------
     5 (A) A              23 (A) A                 0.6004
     5 (A) B              25 (A) B                -0.4547
    ------------------------------------------------------
  ----------------------------------------------------------------------------


  Excited state  5 (A)                                             [converged]
  ----------------------------------------------------------------------------
  Term symbol:  6 (-) A                                     R^2 =  2.28448e-12

  Total energy:                                           -423.7312444415 a.u.
  Excitation energy:                                             306.937991 eV

  Osc. strength:                                                      0.149250
  Trans. dip. moment [a.u.]:           [   0.081352,    0.019520,   -0.113351]
  <i|r^2|0> [a.u.]:                    [  -0.219715,    0.180106,   -0.002073]

  Important amplitudes:
     core i     occ j      vir a      vir b          v   
    ------------------------------------------------------
     5 (A) B              22 (A) B                -0.6598
     5 (A) A              24 (A) A                -0.5916
    ------------------------------------------------------
  ----------------------------------------------------------------------------


  Excited state  6 (A)                                             [converged]
  ----------------------------------------------------------------------------
  Term symbol:  7 (-) A                                     R^2 =  1.17707e-12

  Total energy:                                           -423.7255695636 a.u.
  Excitation energy:                                             307.092412 eV

  Osc. strength:                                                      0.148072
  Trans. dip. moment [a.u.]:           [  -0.044180,    0.132858,   -0.008830]
  <i|r^2|0> [a.u.]:                    [   0.119258,    1.181495,   -0.004142]

  Important amplitudes:
     core i     occ j      vir a      vir b          v   
    ------------------------------------------------------
     5 (A) B              24 (A) B                 0.6163
     5 (A) A              22 (A) A                 0.4935
    ------------------------------------------------------
  ----------------------------------------------------------------------------


  Excited state  7 (A)                                             [converged]
  ----------------------------------------------------------------------------
  Term symbol:  8 (-) A                                     R^2 =  6.83961e-12

  Total energy:                                           -423.7255661241 a.u.
  Excitation energy:                                             307.092506 eV

  Osc. strength:                                                      0.148072
  Trans. dip. moment [a.u.]:           [   0.105671,    0.040645,    0.082840]
  <i|r^2|0> [a.u.]:                    [  -0.285246,    0.361841,    0.005049]

  Important amplitudes:
     core i     occ j      vir a      vir b          v   
    ------------------------------------------------------
     5 (A) B              25 (A) B                 0.6163
     5 (A) A              23 (A) A                 0.4935
    ------------------------------------------------------
  ----------------------------------------------------------------------------


  Excited state  8 (A)                                             [converged]
  ----------------------------------------------------------------------------
  Term symbol:  9 (-) A                                     R^2 =  1.06394e-12

  Total energy:                                           -423.6923544870 a.u.
  Excitation energy:                                             307.996240 eV

  Osc. strength:                                                      0.000000
  Trans. dip. moment [a.u.]:           [  -0.000000,   -0.000001,   -0.000000]
  <i|r^2|0> [a.u.]:                    [  -0.001915,   -0.001904,   -0.001933]

  Important amplitudes:
     core i     occ j      vir a      vir b          v   
    ------------------------------------------------------
     5 (A) A              25 (A) A                -0.6410
     5 (A) B              23 (A) B                 0.5626
    ------------------------------------------------------
  ----------------------------------------------------------------------------


  Excited state  9 (A)                                             [converged]
  ----------------------------------------------------------------------------
  Term symbol:  10 (-) A                                    R^2 =  1.43576e-12

  Total energy:                                           -423.5504468574 a.u.
  Excitation energy:                                             311.857743 eV

  Osc. strength:                                                      0.000000
  Trans. dip. moment [a.u.]:           [  -0.000003,    0.000001,    0.000004]
  <i|r^2|0> [a.u.]:                    [  -0.031887,   -0.031904,   -0.031882]

  Important amplitudes:
     core i     occ j      vir a      vir b          v   
    ------------------------------------------------------
     5 (A) B              23 (A) B                -0.6661
     5 (A) A              25 (A) A                -0.6054
    ------------------------------------------------------
  ----------------------------------------------------------------------------


  Excited state 10 (A)                                             [converged]
  ----------------------------------------------------------------------------
  Term symbol:  11 (-) A                                    R^2 =  1.29998e-12

  Total energy:                                           -423.1527592971 a.u.
  Excitation energy:                                             322.679372 eV

  Osc. strength:                                                      0.000000
  Trans. dip. moment [a.u.]:           [  -0.000000,   -0.000001,   -0.000000]
  <i|r^2|0> [a.u.]:                    [  -0.001098,   -0.001088,   -0.001114]

  Important amplitudes:
     core i     occ j      vir a      vir b          v   
    ------------------------------------------------------
     5 (A) B              26 (A) B                 0.6457
     5 (A) A              28 (A) A                -0.5582
    ------------------------------------------------------
  ----------------------------------------------------------------------------


  Excited state 11 (A)                                             [converged]
  ----------------------------------------------------------------------------
  Term symbol:  12 (-) A                                    R^2 =  2.26296e-12

  Total energy:                                           -423.1377891957 a.u.
  Excitation energy:                                             323.086729 eV

  Osc. strength:                                                      0.000000
  Trans. dip. moment [a.u.]:           [   0.000003,    0.000004,    0.000002]
  <i|r^2|0> [a.u.]:                    [  -0.015312,   -0.015255,   -0.015317]

  Important amplitudes:
     core i     occ j      vir a      vir b          v   
    ------------------------------------------------------
     5 (A) A              28 (A) A                 0.6833
     5 (A) B              26 (A) B                 0.5871
    ------------------------------------------------------
  ----------------------------------------------------------------------------


  Excited state 12 (A)                                             [converged]
  ----------------------------------------------------------------------------
  Term symbol:  13 (-) A                                    R^2 =  9.42625e-11

  Total energy:                                           -423.1321426948 a.u.
  Excitation energy:                                             323.240379 eV

  Osc. strength:                                                      0.005359
  Trans. dip. moment [a.u.]:           [  -0.021136,    0.005101,   -0.014283]
  <i|r^2|0> [a.u.]:                    [   0.054824,    0.045294,    0.001039]

  Important amplitudes:
     core i     occ j      vir a      vir b          v   
    ------------------------------------------------------
     5 (A) A              27 (A) A                 0.8358
     5 (A) A              22 (A) A                -0.3802
    ------------------------------------------------------
  ----------------------------------------------------------------------------


  Excited state 13 (A)                                             [converged]
  ----------------------------------------------------------------------------
  Term symbol:  14 (-) A                                    R^2 =  4.57397e-10

  Total energy:                                           -423.1321401321 a.u.
  Excitation energy:                                             323.240448 eV

  Osc. strength:                                                      0.005359
  Trans. dip. moment [a.u.]:           [   0.002119,    0.025252,    0.005882]
  <i|r^2|0> [a.u.]:                    [  -0.005495,    0.223945,    0.000203]

  Important amplitudes:
     core i     occ j      vir a      vir b          v   
    ------------------------------------------------------
     5 (A) A              26 (A) A                -0.8358
     5 (A) A              23 (A) A                -0.3802
    ------------------------------------------------------
  ----------------------------------------------------------------------------


  Excited state 14 (A)                                             [converged]
  ----------------------------------------------------------------------------
  Term symbol:  15 (-) A                                    R^2 =  8.40875e-12

  Total energy:                                           -423.1314710692 a.u.
  Excitation energy:                                             323.258654 eV

  Osc. strength:                                                      0.000042
  Trans. dip. moment [a.u.]:           [   0.001313,    0.000326,   -0.001857]
  <i|r^2|0> [a.u.]:                    [  -0.003453,    0.002873,    0.000008]

  Important amplitudes:
     core i     occ j      vir a      vir b          v   
    ------------------------------------------------------
     5 (A) A              29 (A) A                 0.6337
     5 (A) B              27 (A) B                -0.5764
    ------------------------------------------------------
  ----------------------------------------------------------------------------


  Excited state 15 (A)                                             [converged]
  ----------------------------------------------------------------------------
  Term symbol:  16 (-) A                                    R^2 =  3.64047e-11

  Total energy:                                           -423.1203066721 a.u.
  Excitation energy:                                             323.562453 eV

  Osc. strength:                                                      0.018491
  Trans. dip. moment [a.u.]:           [   0.027885,    0.006709,   -0.038859]
  <i|r^2|0> [a.u.]:                    [  -0.072275,    0.057519,    0.000632]

  Important amplitudes:
     core i     occ j      vir a      vir b          v   
    ------------------------------------------------------
     5 (A) B              27 (A) B                 0.6496
     5 (A) A              29 (A) A                 0.5967
    ------------------------------------------------------
  ----------------------------------------------------------------------------


  Excited state 16 (A)                                             [converged]
  ----------------------------------------------------------------------------
  Term symbol:  17 (-) A                                    R^2 =  1.24858e-09

  Total energy:                                           -423.1098581936 a.u.
  Excitation energy:                                             323.846771 eV

  Osc. strength:                                                      0.012285
  Trans. dip. moment [a.u.]:           [   0.032013,   -0.007134,    0.021742]
  <i|r^2|0> [a.u.]:                    [  -0.083011,   -0.063362,   -0.001596]

  Important amplitudes:
     core i     occ j      vir a      vir b          v   
    ------------------------------------------------------
     5 (A) B              29 (A) B                -0.8529
     5 (A) B              24 (A) B                 0.3708
    ------------------------------------------------------
  ----------------------------------------------------------------------------


  Excited state 17 (A)                                             [converged]
  ----------------------------------------------------------------------------
  Term symbol:  18 (-) A                                    R^2 =  7.29798e-10

  Total energy:                                           -423.1098552877 a.u.
  Excitation energy:                                             323.846850 eV

  Osc. strength:                                                      0.012285
  Trans. dip. moment [a.u.]:           [   0.002720,    0.038309,    0.008566]
  <i|r^2|0> [a.u.]:                    [  -0.007052,    0.339732,    0.000334]

  Important amplitudes:
     core i     occ j      vir a      vir b          v   
    ------------------------------------------------------
     5 (A) B              28 (A) B                -0.8529
     5 (A) B              25 (A) B                -0.3708
    ------------------------------------------------------
  ----------------------------------------------------------------------------


  Excited state 18 (A)                                             [converged]
  ----------------------------------------------------------------------------
  Term symbol:  19 (-) A                                    R^2 =  1.59803e-10

  Total energy:                                           -422.6135718037 a.u.
  Excitation energy:                                             337.351410 eV

  Osc. strength:                                                      0.000000
  Trans. dip. moment [a.u.]:           [  -0.000000,    0.000000,   -0.000000]
  <i|r^2|0> [a.u.]:                    [   0.000000,    0.002463,   -0.002463]

  Important amplitudes:
     core i     occ j      vir a      vir b          v   
    ------------------------------------------------------
     5 (A) A              30 (A) A                 0.9283
     5 (A) A              36 (A) A                -0.3586
    ------------------------------------------------------
  ----------------------------------------------------------------------------


  Excited state 19 (A)                                             [converged]
  ----------------------------------------------------------------------------
  Term symbol:  20 (-) A                                    R^2 =  2.74606e-10

  Total energy:                                           -422.5989102544 a.u.
  Excitation energy:                                             337.750371 eV

  Osc. strength:                                                      0.000000
  Trans. dip. moment [a.u.]:           [  -0.000000,   -0.000000,    0.000000]
  <i|r^2|0> [a.u.]:                    [  -0.000031,   -0.006019,    0.005956]

  Important amplitudes:
     core i     occ j      vir a      vir b          v   
    ------------------------------------------------------
     5 (A) A              31 (A) A                -0.9169
     5 (A) A              37 (A) A                -0.3581
    ------------------------------------------------------
  ----------------------------------------------------------------------------


  Excited state 20 (A)                                             [converged]
  ----------------------------------------------------------------------------
  Term symbol:  21 (-) A                                    R^2 =  1.88313e-09

  Total energy:                                           -422.5948051000 a.u.
  Excitation energy:                                             337.862078 eV

  Osc. strength:                                                      0.000000
  Trans. dip. moment [a.u.]:           [   0.000000,    0.000000,   -0.000000]
  <i|r^2|0> [a.u.]:                    [  -0.000031,    0.008171,   -0.008234]

  Important amplitudes:
     core i     occ j      vir a      vir b          v   
    ------------------------------------------------------
     5 (A) B              30 (A) B                 0.9166
     5 (A) B              36 (A) B                 0.3590
    ------------------------------------------------------
  ----------------------------------------------------------------------------


  Excited state 21 (A)                                             [converged]
  ----------------------------------------------------------------------------
  Term symbol:  22 (-) A                                    R^2 =  1.70722e-08

  Total energy:                                           -422.5604403510 a.u.
  Excitation energy:                                             338.797190 eV

  Osc. strength:                                                      0.000000
  Trans. dip. moment [a.u.]:           [  -0.000000,   -0.000000,   -0.000000]
  <i|r^2|0> [a.u.]:                    [   0.000000,   -0.002714,    0.002713]

  Important amplitudes:
     core i     occ j      vir a      vir b          v   
    ------------------------------------------------------
     5 (A) B              31 (A) B                 0.9201
     5 (A) B              37 (A) B                 0.3769
    ------------------------------------------------------
  ----------------------------------------------------------------------------


  Excited state 22 (A)                                             [converged]
  ----------------------------------------------------------------------------
  Term symbol:  23 (-) A                                    R^2 =  3.49726e-07

  Total energy:                                           -422.4129316903 a.u.
  Excitation energy:                                             342.811105 eV

  Osc. strength:                                                      0.001750
  Trans. dip. moment [a.u.]:           [  -0.011688,   -0.000351,   -0.008463]
  <i|r^2|0> [a.u.]:                    [   0.024361,   -0.002697,    0.006112]

  Important amplitudes:
     core i     occ j      vir a      vir b          v   
    ------------------------------------------------------
     5 (A) A              32 (A) A                -0.9096
     5 (A) B              33 (A) B                 0.2755
    ------------------------------------------------------
  ----------------------------------------------------------------------------


  Excited state 23 (A)                                             [converged]
  ----------------------------------------------------------------------------
  Term symbol:  24 (-) A                                    R^2 =  2.92604e-07

  Total energy:                                           -422.4129290646 a.u.
  Excitation energy:                                             342.811177 eV

  Osc. strength:                                                      0.001750
  Trans. dip. moment [a.u.]:           [   0.001434,   -0.014296,   -0.001388]
  <i|r^2|0> [a.u.]:                    [  -0.002990,   -0.125061,   -0.002696]

  Important amplitudes:
     core i     occ j      vir a      vir b          v   
    ------------------------------------------------------
     5 (A) A              33 (A) A                -0.9096
     5 (A) B              34 (A) B                 0.2755
    ------------------------------------------------------
  ----------------------------------------------------------------------------


  Excited state 24 (A)                                             [converged]
  ----------------------------------------------------------------------------
  Term symbol:  25 (-) A                                    R^2 =  2.27361e-08

  Total energy:                                           -422.4123130745 a.u.
  Excitation energy:                                             342.827939 eV

  Osc. strength:                                                      0.001448
  Trans. dip. moment [a.u.]:           [  -0.007597,   -0.001780,    0.010561]
  <i|r^2|0> [a.u.]:                    [   0.015761,   -0.009600,   -0.001891]

  Important amplitudes:
     core i     occ j      vir a      vir b          v   
    ------------------------------------------------------
     5 (A) A              34 (A) A                -0.9050
     5 (A) B              32 (A) B                 0.3204
    ------------------------------------------------------
  ----------------------------------------------------------------------------


  Excited state 25 (A)                                             [converged]
  ----------------------------------------------------------------------------
  Term symbol:  26 (-) A                                    R^2 =  3.91463e-08

  Total energy:                                           -422.4008729009 a.u.
  Excitation energy:                                             343.139242 eV

  Osc. strength:                                                      0.006889
  Trans. dip. moment [a.u.]:           [  -0.016507,   -0.004035,    0.023038]
  <i|r^2|0> [a.u.]:                    [   0.034399,   -0.022497,   -0.004105]

  Important amplitudes:
     core i     occ j      vir a      vir b          v   
    ------------------------------------------------------
     5 (A) B              32 (A) B                -0.9058
     5 (A) A              34 (A) A                -0.3266
    ------------------------------------------------------
  ----------------------------------------------------------------------------


  Excited state 26 (A)                                             [converged]
  ----------------------------------------------------------------------------
  Term symbol:  27 (-) A                                    R^2 =  7.64191e-07

  Total energy:                                           -422.4000289821 a.u.
  Excitation energy:                                             343.162206 eV

  Osc. strength:                                                      0.006617
  Trans. dip. moment [a.u.]:           [   0.022824,   -0.000234,    0.016312]
  <i|r^2|0> [a.u.]:                    [  -0.047497,   -0.002796,   -0.012109]

  Important amplitudes:
     core i     occ j      vir a      vir b          v   
    ------------------------------------------------------
     5 (A) B              33 (A) B                 0.9074
     5 (A) A              32 (A) A                 0.2854
    ------------------------------------------------------
  ----------------------------------------------------------------------------


  Excited state 27 (A)                                             [converged]
  ----------------------------------------------------------------------------
  Term symbol:  28 (-) A                                    R^2 =  4.59874e-07

  Total energy:                                           -422.4000263319 a.u.
  Excitation energy:                                             343.162278 eV

  Osc. strength:                                                      0.006617
  Trans. dip. moment [a.u.]:           [   0.002112,   -0.027773,   -0.003353]
  <i|r^2|0> [a.u.]:                    [  -0.004395,   -0.242973,   -0.004850]

  Important amplitudes:
     core i     occ j      vir a      vir b          v   
    ------------------------------------------------------
     5 (A) B              34 (A) B                -0.9074
     5 (A) A              33 (A) A                -0.2854
    ------------------------------------------------------
  ----------------------------------------------------------------------------


  Excited state 28 (A)                                             [converged]
  ----------------------------------------------------------------------------
  Term symbol:  29 (-) A                                    R^2 =  5.67342e-10

  Total energy:                                           -422.2681429918 a.u.
  Excitation energy:                                             346.751006 eV

  Osc. strength:                                                      0.000000
  Trans. dip. moment [a.u.]:           [  -0.000000,    0.000000,    0.000000]
  <i|r^2|0> [a.u.]:                    [   0.003537,    0.003532,    0.003544]

  Important amplitudes:
     core i     occ j      vir a      vir b          v   
    ------------------------------------------------------
     5 (A) A              35 (A) A                 0.9973
     5 (A) A              25 (A) A                 0.0492
    ------------------------------------------------------
  ----------------------------------------------------------------------------


  Excited state 29 (A)                                             [converged]
  ----------------------------------------------------------------------------
  Term symbol:  30 (-) A                                    R^2 =  4.39957e-08

  Total energy:                                           -422.2603712652 a.u.
  Excitation energy:                                             346.962486 eV

  Osc. strength:                                                      0.000000
  Trans. dip. moment [a.u.]:           [   0.000000,   -0.000000,   -0.000000]
  <i|r^2|0> [a.u.]:                    [  -0.003645,   -0.003754,   -0.003538]

  Important amplitudes:
     core i     occ j      vir a      vir b          v   
    ------------------------------------------------------
     5 (A) B              35 (A) B                -0.9972
     5 (A) B              23 (A) B                -0.0501
    ------------------------------------------------------
  ----------------------------------------------------------------------------


  Excited state 30 (A)                                             [converged]
  ----------------------------------------------------------------------------
  Term symbol:  31 (-) A                                    R^2 =  1.76232e-08

  Total energy:                                           -422.2579706104 a.u.
  Excitation energy:                                             347.027811 eV

  Osc. strength:                                                      0.000000
  Trans. dip. moment [a.u.]:           [  -0.000000,   -0.000000,   -0.000000]
  <i|r^2|0> [a.u.]:                    [   0.000001,    0.002162,   -0.002163]

  Important amplitudes:
     core i     occ j      vir a      vir b          v   
    ------------------------------------------------------
     5 (A) A              36 (A) A                -0.9253
     5 (A) A              30 (A) A                -0.3673
    ------------------------------------------------------
  ----------------------------------------------------------------------------


--------------------------------------------------------------------------------
  Time of ADC calculation:  CPU 35.44 s  wall 35.62 s
================================================================================
 
 --------------------------------------------------------------
 
                    Orbital Energies (a.u.)
 --------------------------------------------------------------
 
 Alpha MOs
 -- Occupied --
-26.764 -26.764 -26.764 -26.763 -11.947  -2.177  -2.049  -2.049
 -2.048  -1.351  -1.245  -1.245  -1.237  -1.145  -1.112  -1.076
 -1.076  -1.067  -1.057  -1.036  -1.036
 -- Virtual --
  0.106   0.106   0.111   0.117   0.376   0.376   0.377   0.378
  0.943   0.961   1.005   1.005   1.006   1.109   1.251   1.261
  1.282   1.296   1.296   1.342   1.342   1.352   1.488   1.488
  1.492   1.760   1.763   1.763   1.786   1.787   1.906   1.908
  1.908   1.972   1.972   1.977   2.048   2.058   2.058   2.273
  2.603   2.603   2.609   2.829   2.839   3.054   3.097   3.097
  3.098   4.388   4.420   4.420   4.424   6.000
 
 Beta MOs
 -- Occupied --
-26.745 -26.745 -26.745 -26.745 -11.949  -2.139  -1.995  -1.994
 -1.994  -1.332  -1.223  -1.203  -1.203  -1.096  -1.043  -1.024
 -1.024  -0.943  -0.899  -0.899
 -- Virtual --
 -0.596   0.114   0.125   0.130   0.130   0.375   0.377   0.379
  0.379   0.967   1.011   1.015   1.017   1.017   1.114   1.260
  1.265   1.315   1.315   1.342   1.355   1.368   1.368   1.501
  1.501   1.508   1.782   1.782   1.783   1.806   1.811   1.916
  1.919   1.919   1.983   1.988   1.988   2.070   2.070   2.077
  2.280   2.613   2.617   2.617   2.838   2.838   3.064   3.104
  3.104   3.104   4.387   4.430   4.430   4.432   6.005
 --------------------------------------------------------------
 
          Ground-State Mulliken Net Atomic Charges

     Atom                 Charge (a.u.)    Spin (a.u.)
  --------------------------------------------------------
      1 C                     1.356921      -0.164289
      2 F                    -0.089227       0.291074
      3 F                    -0.089240       0.291065
      4 F                    -0.089230       0.291072
      5 F                    -0.089223       0.291078
  --------------------------------------------------------
  Sum of atomic charges =     1.000000
  Sum of spin   charges =     1.000000

 -----------------------------------------------------------------
                    Cartesian Multipole Moments
 -----------------------------------------------------------------
    Charge (ESU x 10^10)
                 4.8032
    Dipole Moment (Debye)
         X      -3.3591      Y      11.2859      Z      -0.0001
       Tot      11.7752
    Quadrupole Moments (Debye-Ang)
        XX     -18.1705     XY      -7.9081     YY       6.0590
        XZ       0.0896     YZ       0.0214     ZZ     -20.5801
    Octopole Moments (Debye-Ang^2)
       XXX      42.5280    XXY     -42.6731    XYY      -4.8701
       YYY     -82.2965    XXZ      -0.1253    XYZ       0.1955
       YYZ       0.7911    XZZ      13.8323    YZZ     -47.9677
       ZZZ      -0.6904
    Hexadecapole Moments (Debye-Ang^3)
      XXXX    -129.7552   XXXY      99.9215   XXYY    -132.3477
      XYYY      53.6610   YYYY    -603.3744   XXXZ       0.0312
      XXYZ      -0.1791   XYYZ      -0.6068   YYYZ       5.0371
      XXZZ     -32.7794   XYZZ      31.8588   YYZZ    -134.2890
      XZZZ       1.3669   YZZZ      -1.4869   ZZZZ     -68.1299
 -----------------------------------------------------------------
Archival summary:
1\1\tp-linux1\SP\HF\6-31G*\41(1+,2)\thomas\TueMar716:40:252017TueMar716:40:252017\0\\#,HF,6-31G*,\\1,2\C\F,1,1.30149\F,1,1.30149,2,109.471\F,1,1.30149,2,109.471,3,120,0\F,1,1.3015,2,109.471,3,-119.999,0\\HF=-435.011009\\@

 Total job time:  49.93s(wall), 42.36s(cpu) 
 Tue Mar  7 16:40:25 2017

        *************************************************************
        *                                                           *
        *  Thank you very much for using Q-Chem.  Have a nice day.  *
        *                                                           *
        *************************************************************


0 sent ACK to 0 
now end server 0 ... 
cleanup process ... done
