
Running Job 1 of 1 cvs-adc2x.inp
qchem cvs-adc2x.inp_27243.0 /scratch/qchem/qchem27243/ 1
/mnt/software/qchem/bin/mpi/mpirun_qchem -machinefile /mnt/software/qchem/bin/mpi/machines -np 1 /mnt/software/qchem/exe/qcprog.exe cvs-adc2x.inp_27243.0 /scratch/qchem/qchem27243/

Process 0 of 1 is on tp-linux1 - thread support 0
initial socket setup ...start
initial socket setup ...done 
now start server 0 ... 

cmd = ssh tp-linux1 /mnt/software/qchem/bin/get_hostid 764856457 > /scratch/qchem/qchem27243/lic.dat
                  Welcome to Q-Chem
     A Quantum Leap Into The Future Of Chemistry


 Q-Chem 4.3, Q-Chem, Inc., Pleasanton, CA (2015)

 Y. Shao,  Z. Gan,  E. Epifanovsky,  A. T. B. Gilbert,  M. Wormit,  
 J. Kussmann,  A. W. Lange,  A. Behn,  J. Deng,  X. Feng,  D. Ghosh,  
 M. Goldey,  P. R. Horn,  L. D. Jacobson,  I. Kaliman,  R. Z. Khaliullin,  
 T. Kus,  A. Landau,  J. Liu,  E. I. Proynov,  Y. M. Rhee,  R. M. Richard,  
 M. A. Rohrdanz,  R. P. Steele,  E. J. Sundstrom,  H. L. Woodcock III,  
 P. M. Zimmerman,  D. Zuev,  B. Albrecht,  E. Alguire,  B. Austin,  
 S. A. Baeppler,  G. J. O. Beran,  Y. A. Bernard,  E. Berquist,  
 K. Brandhorst,  K. B. Bravaya,  S. T. Brown,  D. Casanova,  C.-M. Chang,  
 Y. Chen,  S. H. Chien,  K. D. Closser,  D. L. Crittenden,  M. Diedenhofen,  
 R. A. DiStasio Jr.,  H. Do,  A. D. Dutoi,  R. G. Edgar,  P.-T. Fang,  
 S. Fatehi,  Q. Feng,  L. Fusti-Molnar,  A. Ghysels,  
 A. Golubeva-Zadorozhnaya,  J. Gomes,  A. Gunina,  M. W. D. Hanson-Heine,  
 P. H. P. Harbach,  A. W. Hauser,  E. G. Hohenstein,  Z. C. Holden,  K. Hui,  
 T.-C. Jagau,  H. Ji,  B. Kaduk,  K. Khistyaev,  Jaehoon Kim,  Jihan Kim,  
 R. A. King,  P. Klunzinger,  D. Kosenkov,  T. Kowalczyk,  C. M. Krauter,  
 K. U. Lao,  A. Laurent,  K. V. Lawler,  S. Lehtola,  S. V. Levchenko,  
 C. Y. Lin,  Y.-S. Lin,  F. Liu,  E. Livshits,  R. C. Lochan,  A. Luenser,  
 P. Manohar,  S. F. Manzer,  S.-P. Mao,  N. Mardirossian,  A. V. Marenich,  
 L. A. Martinez-Martinez,  S. A. Maurer,  N. J. Mayhall,  K. Nanda,  
 C. M. Oana,  R. Olivares-Amaya,  D. P. O'Neill,  J. A. Parkhill,  
 T. M. Perrine,  R. Peverati,  P. A. Pieniazek,  F. Plasser,  A. Prociuk,  
 D. R. Rehn,  E. Rosta,  N. J. Russ,  N. Sergueev,  S. M. Sharada,  
 S. Sharma,  D. W. Small,  A. Sodt,  T. Stauch,  T. Stein,  D. Stuck,  
 Y.-C. Su,  A. J. W. Thom,  T. Tsuchimochi,  L. Vogt,  O. Vydrov,  T. Wang,  
 M. A. Watson,  J. Wenzel,  A. White,  C. F. Williams,  V. Vanovschi,  
 S. Yeganeh,  S. R. Yost,  Z.-Q. You,  I. Y. Zhang,  X. Zhang,  Y. Zhao,  
 B. R. Brooks,  G. K. L. Chan,  D. M. Chipman,  C. J. Cramer,  
 W. A. Goddard III,  M. S. Gordon,  W. J. Hehre,  A. Klamt,  
 H. F. Schaefer III,  M. W. Schmidt,  C. D. Sherrill,  D. G. Truhlar,  
 A. Warshel,  X. Xu,  A. Aspuru-Guzik,  R. Baer,  A. T. Bell,  N. A. Besley,  
 J.-D. Chai,  A. Dreuw,  B. D. Dunietz,  T. R. Furlani,  S. R. Gwaltney,  
 C.-P. Hsu,  Y. Jung,  J. Kong,  D. S. Lambrecht,  W. Liang,  C. Ochsenfeld,  
 V. A. Rassolov,  L. V. Slipchenko,  J. E. Subotnik,  T. Van Voorhis,  
 J. M. Herbert,  A. I. Krylov,  P. M. W. Gill,  M. Head-Gordon

 Contributors to earlier versions of Q-Chem not listed above: 
 R. D. Adamson,  J. Baker,  E. F. C. Byrd,  A. K. Chakraborty,  C.-L. Cheng,  
 H. Dachsel,  R. J. Doerksen,  G. Hawkins,  A. Heyden,  S. Hirata,  
 G. Kedziora,  F. J. Keil,  C. Kelley,  P. P. Korambath,  W. Kurlancheek,  
 A. M. Lee,  M. S. Lee,  D. Liotard,  I. Lotan,  P. E. Maslen,  N. Nair,  
 D. Neuhauser,  R. Olson,  B. Peters,  J. Ritchie,  N. E. Schultz,  
 N. Shenvi,  A. C. Simmonett,  K. S. Thanthiriwatte,  Q. Wu,  W. Zhang

 Please cite Q-Chem as follows:
 Y. Shao et al., Mol. Phys. 113, 184-215 (2015)
 DOI: 10.1080/00268976.2014.952696

 Q-Chem 4.3.0 for Intel X86 Linux

 Parts of Q-Chem use Armadillo 5.200.1 (Boston Tea Smuggler).
 http://arma.sourceforge.net/

 Q-Chem begins on Tue Mar  7 16:10:41 2017  

Host: 
0

     Scratch files written to /scratch/qchem/qchem27243//
 Nov1815 1189b_ 19540  19532 5443   
 Parallel job on  1  processors
Processing $rem in /mnt/software/qchem/config/preferences.
 MEM_TOTAL  2000 

Checking the input file for inconsistencies... 	...done.

--------------------------------------------------------------
User input:
--------------------------------------------------------------
$comment
job3 - cvs-adc(2)-x calculation with mom to prevent collapse to ground state
$end

$molecule
1 2
C    -0.69934   2.34967   0.00000
F     0.60215   2.34967  -0.00000
F    -1.13316   3.29245   0.78541
F    -1.13317   1.19810   0.42375
F    -1.13317   2.55847  -1.20916
$end

$rem
mem_total 3000
mem_static 1500
sym_ignore true
method cvs-adc(2)-x
basis 6-31G*
ee_singlets 30
cc_rest_occ 5                  !only excitations from the 5th orbital (C 1s)
unrestricted  true
max_scf_cycles 200
$end

--------------------------------------------------------------
 ----------------------------------------------------------------
             Standard Nuclear Orientation (Angstroms)
    I     Atom           X                Y                Z
 ----------------------------------------------------------------
    1      C      -0.6993400000     2.3496700000     0.0000000000
    2      F       0.6021500000     2.3496700000     0.0000000000
    3      F      -1.1331600000     3.2924500000     0.7854100000
    4      F      -1.1331700000     1.1981000000     0.4237500000
    5      F      -1.1331700000     2.5584700000    -1.2091600000
 ----------------------------------------------------------------
 Nuclear Repulsion Energy =   208.8311212848 hartrees
 There are       21 alpha and       20 beta electrons
 Requested basis set is 6-31G(d)
 There are 20 shells and 75 basis functions

 Total QAlloc Memory Limit   3000 MB
 Mega-Array Size      1467 MB
 MEM_STATIC part      1500 MB

                       Distance Matrix (Angstroms)
             C (  1)   F (  2)   F (  3)   F (  4)
   F (  2)  1.301490
   F (  3)  1.301500  2.125324
   F (  4)  1.301494  2.125327  2.125347
   F (  5)  1.301489  2.125324  2.125332  2.125324
 
 tim1(1): 
  0.000000000000000E+000
 tim1(2): 
  0.000000000000000E+000
 A cutoff of  1.0D-11 yielded    204 shell pairs
 There are      2979 function pairs
 
 -------------------------------------------------------
 OpenMP Integral Computing Module                       
 Release: version 1.0, May 2013, Q-Chem Inc. Pittsburgh 
 -------------------------------------------------------
 Integral Job Info:
 Integral job number is                      11
 Integral operator is                         1
 short-range coefficients                     0
 long-range coefficients              100000000
 Omega coefficients                           0
 if combine SR and LR in K                    0
 Integral screening is                        0
 Integral computing path is                   2
 max size of driver memory is            800000
 size of driver memory is                593474
 size of scratch memory is              2260544
 max col of scratch BK array               1296
 max len of scratch array in speh3          155
 max len of scratch index in speh4           18
 max int batch size is                      520
 min int batch size is                       52
 fixed nKL is                                52
 max L of basis functions is                  2
 order of int derivative is                   0
 number of shells is                         20
 number of basis is                          75
 number of cartesian basis is                75
 number of contracted shell pairs           204
 number of primitive shell pairs           1074
 maxK2 (contraction) of shell pair           36
 max number of K2 of shell pair               1
 max number of CS2 of shell pair             37
 max number of PS2 of shell pair            222
 mem total for path MDJ                   21832
 -------------------------------------------------------
 Smallest overlap matrix eigenvalue = 1.75E-03

 Scale SEOQF with 1.000000e+00/1.000000e-01/1.000000e+00

 Standard Electronic Orientation quadrupole field applied
 Nucleus-field energy     =     0.0000000108 hartrees
 Guess from superposition of atomic densities
 Warning:  Energy on first SCF cycle will be non-variational
 An unrestricted Hartree-Fock SCF calculation will be
 performed using Pulay DIIS extrapolation
 SCF converges when DIIS error is below 1.0E-08
 using 4 threads for integral computing 
 ---------------------------------------
  Cycle       Energy         DIIS Error
 ---------------------------------------
    1    -436.6440699958      8.95E-02
    2    -434.8131118583      1.82E-02
    3    -434.9800953165      8.16E-03
    4    -435.0150647222      2.04E-03
    5    -435.0198896540      8.12E-04
    6    -435.0268364200      1.24E-03
    7    -435.0247796939      1.24E-03
    8    -435.0137067473      5.42E-04
    9    -435.0139807911      6.14E-04
   10    -435.0144159454      5.92E-04
   11    -435.0121793868      4.04E-04
   12    -435.0107291402      1.97E-04
   13    -435.0109398700      2.19E-04
   14    -435.0111268324      2.32E-04
   15    -435.0104219014      1.16E-04
   16    -435.0102667415      1.04E-04
   17    -435.0104498414      1.32E-04
   18    -435.0104430888      1.05E-04
   19    -435.0105056144      7.74E-05
   20    -435.0106153211      4.69E-05
   21    -435.0107273987      3.82E-05
   22    -435.0108316986      3.26E-05
   23    -435.0109182982      3.26E-05
   24    -435.0109459476      1.98E-05
   25    -435.0109617240      1.86E-05
   26    -435.0109758098      3.08E-05
   27    -435.0109790568      1.68E-05
   28    -435.0109994400      1.13E-05
   29    -435.0110043086      7.28E-06
   30    -435.0110062460      7.47E-06
   31    -435.0110069823      5.94E-06
   32    -435.0110073624      3.17E-06
   33    -435.0110076286      3.28E-06
   34    -435.0110077563      2.69E-06
   35    -435.0110079567      1.69E-06
   36    -435.0110081278      1.76E-06
   37    -435.0110082710      1.28E-06
   38    -435.0110084083      1.09E-06
   39    -435.0110085062      8.08E-07
   40    -435.0110085254      2.31E-07
   41    -435.0110085293      1.42E-07
   42    -435.0110085297      5.82E-08
   43    -435.0110085297      4.45E-08
   44    -435.0110085298      3.12E-08
   45    -435.0110085298      2.33E-08
   46    -435.0110085298      1.76E-08
   47    -435.0110085298      1.19E-08
   48    -435.0110085298      7.48E-09 Convergence criterion met
 ---------------------------------------
 <S^2> = 0.7769
 SCF time:  CPU 28.66 s  wall 38.90 s
 SCF   energy in the final basis set = -435.0110085298
 Total energy in the final basis set = -435.0110085298
================================================================================
|                                                                              |
|                                 A D C  M A N                                 |
|                                                                              |
 ------------------------------------------------------------------------------ 
|                                                                              |
| Components:                                                                  |
|                                                                              |
| - libvmm - 1.2-release                                                       |
|   Authors:                                                                   |
|   Evgeny Epifanovsky, Ilya Kaliman                                           |
|                                                                              |
| - libtensor - 2.4-trunk                                                      |
|   Authors:                                                                   |
|   Evgeny Epifanovsky, Michael Wormit, Dmitry Zuev, Sam Manzer                |
|                                                                              |
| - libwfa - 1.1-beta                                                          |
|   Authors:                                                                   |
|   Felix Plasser, Stefanie Baeppler, Benjamin Thomitzni, Michael Wormit       |
|                                                                              |
| - libadc - 1.0-beta                                                          |
|   Authors:                                                                   |
|   Michael Wormit, Philipp H. P. Harbach, Caroline Krauter, Dirk Rehn,        |
|   Matthias Schneider, Jan Wenzel                                             |
|                                                                              |
| - adcman - 2.4-beta                                                          |
|   Authors:                                                                   |
|   Michael Wormit, Philipp H. P. Harbach, Caroline Krauter, Dirk Rehn,        |
|   Jan Wenzel, Andreas Dreuw                                                  |
|                                                                              |
| Authors of earlier versions of ADCMAN:                                       |
| Andreas Dreuw, Jan Hendrik Starcke, Dirk Rehn, Michael Wormit                |
|                                                                              |
================================================================================

 
 Alpha MOs, Unrestricted
 -- Occupied --                  
-26.764 -26.764 -26.764 -26.763 -11.947  -2.177  -2.049  -2.049
  1 A     2 A     3 A     4 A     5 A     6 A     7 A     8 A                  
 -2.048  -1.351  -1.245  -1.245  -1.237  -1.145  -1.112  -1.076
  9 A    10 A    11 A    12 A    13 A    14 A    15 A    16 A                  
 -1.076  -1.067  -1.057  -1.036  -1.036
 17 A    18 A    19 A    20 A    21 A                                          
 -- Virtual --                   
  0.106   0.106   0.111   0.117   0.376   0.376   0.377   0.378
 22 A    23 A    24 A    25 A    26 A    27 A    28 A    29 A                  
  0.943   0.961   1.005   1.005   1.006   1.109   1.251   1.261
 30 A    31 A    32 A    33 A    34 A    35 A    36 A    37 A                  
  1.282   1.296   1.296   1.342   1.342   1.352   1.488   1.488
 38 A    39 A    40 A    41 A    42 A    43 A    44 A    45 A                  
  1.492   1.760   1.763   1.763   1.786   1.787   1.906   1.908
 46 A    47 A    48 A    49 A    50 A    51 A    52 A    53 A                  
  1.908   1.972   1.972   1.977   2.048   2.058   2.058   2.273
 54 A    55 A    56 A    57 A    58 A    59 A    60 A    61 A                  
  2.603   2.603   2.609   2.829   2.839   3.054   3.097   3.097
 62 A    63 A    64 A    65 A    66 A    67 A    68 A    69 A                  
  3.098   4.388   4.420   4.420   4.424   6.000
 70 A    71 A    72 A    73 A    74 A    75 A                                  
 
 Beta MOs, Unrestricted
 -- Occupied --                  
-26.745 -26.745 -26.745 -26.745 -11.949  -2.139  -1.995  -1.994
  1 A     2 A     3 A     4 A     5 A     6 A     7 A     8 A                  
 -1.994  -1.332  -1.223  -1.203  -1.203  -1.096  -1.043  -1.024
  9 A    10 A    11 A    12 A    13 A    14 A    15 A    16 A                  
 -1.024  -0.943  -0.899  -0.899
 17 A    18 A    19 A    20 A                                                  
 -- Virtual --                   
 -0.596   0.114   0.125   0.130   0.130   0.375   0.377   0.379
 21 A    22 A    23 A    24 A    25 A    26 A    27 A    28 A                  
  0.379   0.967   1.011   1.015   1.017   1.017   1.114   1.260
 29 A    30 A    31 A    32 A    33 A    34 A    35 A    36 A                  
  1.265   1.315   1.315   1.342   1.355   1.368   1.368   1.501
 37 A    38 A    39 A    40 A    41 A    42 A    43 A    44 A                  
  1.501   1.508   1.782   1.782   1.783   1.806   1.811   1.916
 45 A    46 A    47 A    48 A    49 A    50 A    51 A    52 A                  
  1.919   1.919   1.983   1.988   1.988   2.070   2.070   2.077
 53 A    54 A    55 A    56 A    57 A    58 A    59 A    60 A                  
  2.280   2.613   2.617   2.617   2.838   2.838   3.064   3.104
 61 A    62 A    63 A    64 A    65 A    66 A    67 A    68 A                  
  3.104   3.104   4.387   4.430   4.430   4.432   6.005
 69 A    70 A    71 A    72 A    73 A    74 A    75 A                          
 

--------------------------------------------------------------------------------
                                   HF Summary                                   
--------------------------------------------------------------------------------
  Energy:                                                 -435.0110085298 a.u.
  Dip. moment [a.u.]:                  [ -54.183838,  182.049726,    0.000021]
  Total dipole [Debye]:                                             482.784684
  <r^2> [a.u.]:                        [ 159.449868,  896.143475,   87.888087]
  Total <r^2> [a.u.]:                                              1143.481430
--------------------------------------------------------------------------------

--------------------------------------------------------------------------------
                                 MP(2) Summary                                  
--------------------------------------------------------------------------------
  Energy contribution:                                      -0.8602943125 a.u.
  Total energy:                                           -435.8713028422 a.u.
  Dip. moment [a.u.]:                  [ -54.183835,  182.049718,    0.000005]
  Total dipole [Debye]:                                             482.784662
  <r^2> [a.u.]:                        [ 159.262741,  895.941518,   87.715696]
  Total <r^2> [a.u.]:                                              1142.919956
--------------------------------------------------------------------------------
  Starting Davidson ... 
--------------------------------------------------------------------------------
   It NVec Conv  Avg. Norm  Max. Norm  Conv. states           Remark
--------------------------------------------------------------------------------
        30    0  1.789e-01  1.100e+00 11.0989 n n n n n n n n Guess.
    1   60    0  1.073e-01  9.292e-01 10.5900 n n n n n n n n 
    2   90    0  8.381e-02  8.151e-01 10.5541 n n n n n n n n 
    3  120    0  6.208e-02  5.236e-01 10.5527 n n n n n n n n 
    4  150    0  5.763e-02  4.896e-01 10.5526 n n n n n n n n 
    5   60    0  4.229e-02  4.011e-01 10.5526 n n n n n n n n Subspace collapsed.
    6   90    0  3.351e-02  3.992e-01 10.5526 n n n n n n n n 
    7  120    0  2.074e-02  2.956e-01 10.5526 n n n n n n n n 
    8  150    0  1.385e-02  1.562e-01 10.5526 n n n n n n n n 
    9   60    0  7.712e-03  9.576e-02 10.5526 n n n n n n n n Subspace collapsed.
   10   90    0  1.290e-02  2.437e-01 10.5526 n n n n n n n n 
   11  120    1  7.006e-03  1.118e-01 10.5526 y n n n n n n n 
   12  150    1  6.054e-03  1.203e-01 10.5526 y n n n n n n n 
   13   60    1  2.924e-03  5.382e-02 10.5526 y n n n n n n n Subspace collapsed.
   14   90    1  2.838e-03  4.829e-02 10.5526 y n n n n n n n 
   15  120    1  2.441e-03  4.981e-02 10.5526 y n n n n n n n 
   16  150    2  2.470e-03  5.082e-02 10.5526 y n n y n n n n 
   17   60    5  1.270e-03  2.559e-02 10.5526 y y y y y n n n Subspace collapsed.
   18   90    5  1.357e-03  2.680e-02 10.5526 y y y y y n n n 
   19  120    7  1.170e-03  2.625e-02 10.5526 y y y y y y y n 
   20  150    8  1.362e-03  3.231e-02 10.5526 y y y y y y y y 
   21   60    8  6.841e-04  1.583e-02 10.5526 y y y y y y y y Subspace collapsed.
   22   89    9  7.790e-04  1.623e-02 10.5526 y y y y y y y y 
   23  118    9  5.780e-04  1.050e-02 10.5526 y y y y y y y y 
   24  147    9  6.502e-04  1.176e-02 10.5526 y y y y y y y y 
   25  150    9  6.509e-04  1.180e-02 10.5526 y y y y y y y y 
   26   59    9  3.430e-04  7.016e-03 10.5526 y y y y y y y y Subspace collapsed.
   27   88    9  4.571e-04  1.097e-02 10.5526 y y y y y y y y 
   28  117   14  3.487e-04  8.957e-03 10.5526 y y y y y y y y 
   29  146   14  4.493e-04  1.195e-02 10.5526 y y y y y y y y 
   30  150   14  4.598e-04  1.222e-02 10.5526 y y y y y y y y 
   31   59   17  2.217e-04  5.828e-03 10.5526 y y y y y y y y Subspace collapsed.
   32   86   19  2.504e-04  6.087e-03 10.5526 y y y y y y y y 
   33  112   21  1.721e-04  3.805e-03 10.5526 y y y y y y y y 
   34  138   23  1.949e-04  4.411e-03 10.5526 y y y y y y y y 
   35  150   23  2.124e-04  5.029e-03 10.5526 y y y y y y y y 
   36   55   24  1.121e-04  2.823e-03 10.5526 y y y y y y y y Subspace collapsed.
   37   80   25  1.465e-04  3.867e-03 10.5526 y y y y y y y y 
   38  105   25  1.256e-04  3.501e-03 10.5526 y y y y y y y y 
   39  130   25  1.391e-04  3.912e-03 10.5526 y y y y y y y y 
   40  150   25  1.464e-04  4.151e-03 10.5526 y y y y y y y y 
   41   52   25  6.888e-05  1.923e-03 10.5526 y y y y y y y y Subspace collapsed.
   42   74   25  7.035e-05  1.908e-03 10.5526 y y y y y y y y 
   43   96   25  5.495e-05  1.484e-03 10.5526 y y y y y y y y 
   44  118   25  5.158e-05  1.372e-03 10.5526 y y y y y y y y 
   45  139   25  5.911e-05  1.634e-03 10.5526 y y y y y y y y 
   46  150   25  6.223e-05  1.766e-03 10.5526 y y y y y y y y 
   47   51   25  3.291e-05  9.347e-04 10.5526 y y y y y y y y Subspace collapsed.
   48   72   26  3.183e-05  9.047e-04 10.5526 y y y y y y y y 
   49   93   27  2.831e-05  8.149e-04 10.5526 y y y y y y y y 
   50  113   27  2.715e-05  7.869e-04 10.5526 y y y y y y y y 
   51  114   27  2.713e-05  7.870e-04 10.5526 y y y y y y y y 
   52  115   27  2.718e-05  7.887e-04 10.5526 y y y y y y y y 
   53  115   27  2.718e-05  7.887e-04 10.5526 y y y y y y y y 
   54  145   27  2.530e-05  7.403e-04 10.5526 y y y y y y y y 
   55  150   27  2.638e-05  7.740e-04 10.5526 y y y y y y y y 
   56   46   27  1.413e-05  4.126e-04 10.5526 y y y y y y y y Subspace collapsed.
   57   62   27  1.826e-05  5.334e-04 10.5526 y y y y y y y y 
   58   78   27  1.804e-05  5.293e-04 10.5526 y y y y y y y y 
   59   92   27  1.833e-05  5.417e-04 10.5526 y y y y y y y y 
--------------------------------------------------------------------------------
  Davidson Summary: 
 ------------------------------------------------------------
  State  0: excitation energy =  10.5526 a.u.   (converged)
  State  1: excitation energy =  10.9816 a.u.   (converged)
  State  2: excitation energy =  10.9816 a.u.   (converged)
  State  3: excitation energy =  10.9819 a.u.   (converged)
  State  4: excitation energy =  11.0000 a.u.   (converged)
  State  5: excitation energy =  11.0606 a.u.   (converged)
  State  6: excitation energy =  11.0606 a.u.   (converged)
  State  7: excitation energy =  11.0613 a.u.   (converged)
  State  8: excitation energy =  11.0901 a.u.   (converged)
  State  9: excitation energy =  11.1049 a.u.   (converged)
  State 10: excitation energy =  11.1067 a.u.   (converged)
  State 11: excitation energy =  11.1070 a.u.   (converged)
  State 12: excitation energy =  11.1070 a.u.   (converged)
  State 13: excitation energy =  11.1297 a.u.   (converged)
  State 14: excitation energy =  11.1323 a.u.   (converged)
  State 15: excitation energy =  11.1323 a.u.   (converged)
  State 16: excitation energy =  11.1325 a.u.   (converged)
  State 17: excitation energy =  11.1343 a.u.   (converged)
  State 18: excitation energy =  11.1362 a.u.   (converged)
  State 19: excitation energy =  11.1362 a.u.   (converged)
  State 20: excitation energy =  11.1419 a.u.   (converged)
  State 21: excitation energy =  11.1451 a.u.   (converged)
  State 22: excitation energy =  11.1501 a.u.   (converged)
  State 23: excitation energy =  11.1501 a.u.   (converged)
  State 24: excitation energy =  11.1786 a.u.   (converged)
  State 25: excitation energy =  11.1825 a.u.   (converged)
  State 26: excitation energy =  11.1883 a.u.   (converged)
  State 27: excitation energy =  11.2035 a.u.   (not converged)
  State 28: excitation energy =  11.2035 a.u.   (not converged)
  State 29: excitation energy =  11.2154 a.u.   (not converged)
 ------------------------------------------------------------


--------------------------------------------------------------------------------
                             Excited State Summary
--------------------------------------------------------------------------------

  Excited state  1 (A)                                             [converged]
  ----------------------------------------------------------------------------
  Term symbol:  2 (-) A                                     R^2 =  4.53420e-13

  Total energy:                                           -425.3187076054 a.u.
  Excitation energy:                                             287.150720 eV

  Osc. strength:                                                      0.000000
  Trans. dip. moment [a.u.]:           [  -0.000000,   -0.000000,    0.000000]
  <i|r^2|0> [a.u.]:                    [   0.000000,   -0.000000,   -0.000000]

  V1^2 = 0.7578, V2^2 = 0.2422

  Important amplitudes:
     core i     occ j      vir a      vir b          v   
    ------------------------------------------------------
     5 (A) B              21 (A) B                 0.8701
     5 (A) B   13 (A) A   24 (A) A   21 (A) B      0.0917
    ------------------------------------------------------
  ----------------------------------------------------------------------------


  Excited state  2 (A)                                             [converged]
  ----------------------------------------------------------------------------
  Term symbol:  3 (-) A                                     R^2 =  2.61206e-13

  Total energy:                                           -424.8897211979 a.u.
  Excitation energy:                                             298.824034 eV

  Osc. strength:                                                      0.000996
  Trans. dip. moment [a.u.]:           [   0.002225,   -0.011440,   -0.000437]
  <i|r^2|0> [a.u.]:                    [  -0.006002,   -0.101732,    0.000259]

  V1^2 = 0.7842, V2^2 = 0.2158

  Important amplitudes:
     core i     occ j      vir a      vir b          v   
    ------------------------------------------------------
     5 (A) A              22 (A) A                -0.5073
     5 (A) B              24 (A) B                 0.4029
    ------------------------------------------------------
  ----------------------------------------------------------------------------


  Excited state  3 (A)                                             [converged]
  ----------------------------------------------------------------------------
  Term symbol:  4 (-) A                                     R^2 =  3.28310e-13

  Total energy:                                           -424.8897174515 a.u.
  Excitation energy:                                             298.824136 eV

  Osc. strength:                                                      0.000996
  Trans. dip. moment [a.u.]:           [  -0.009266,   -0.001539,   -0.006913]
  <i|r^2|0> [a.u.]:                    [   0.024991,   -0.013714,   -0.000451]

  V1^2 = 0.7842, V2^2 = 0.2158

  Important amplitudes:
     core i     occ j      vir a      vir b          v   
    ------------------------------------------------------
     5 (A) A              23 (A) A                -0.5073
     5 (A) B              25 (A) B                 0.4029
    ------------------------------------------------------
  ----------------------------------------------------------------------------


  Excited state  4 (A)                                             [converged]
  ----------------------------------------------------------------------------
  Term symbol:  5 (-) A                                     R^2 =  2.59442e-13

  Total energy:                                           -424.8893549957 a.u.
  Excitation energy:                                             298.833999 eV

  Osc. strength:                                                      0.000524
  Trans. dip. moment [a.u.]:           [   0.004870,    0.001239,   -0.006805]
  <i|r^2|0> [a.u.]:                    [  -0.013067,    0.011279,   -0.000088]

  V1^2 = 0.7886, V2^2 = 0.2114

  Important amplitudes:
     core i     occ j      vir a      vir b          v   
    ------------------------------------------------------
     5 (A) A              24 (A) A                -0.6048
     5 (A) B              22 (A) B                 0.5231
    ------------------------------------------------------
  ----------------------------------------------------------------------------


  Excited state  5 (A)                                             [converged]
  ----------------------------------------------------------------------------
  Term symbol:  6 (-) A                                     R^2 =  1.33421e-13

  Total energy:                                           -424.8713320638 a.u.
  Excitation energy:                                             299.324428 eV

  Osc. strength:                                                      0.000000
  Trans. dip. moment [a.u.]:           [  -0.000001,    0.000001,    0.000002]
  <i|r^2|0> [a.u.]:                    [  -0.002591,   -0.002586,   -0.002597]

  V1^2 = 0.6086, V2^2 = 0.3914

  Important amplitudes:
     core i     occ j      vir a      vir b          v   
    ------------------------------------------------------
     5 (A) A              25 (A) A                -0.5533
     5 (A) B              23 (A) B                 0.4345
    ------------------------------------------------------
  ----------------------------------------------------------------------------


  Excited state  6 (A)                                             [converged]
  ----------------------------------------------------------------------------
  Term symbol:  7 (-) A                                     R^2 =  1.79697e-13

  Total energy:                                           -424.8106706933 a.u.
  Excitation energy:                                             300.975108 eV

  Osc. strength:                                                      0.097496
  Trans. dip. moment [a.u.]:           [   0.026361,   -0.111921,   -0.000880]
  <i|r^2|0> [a.u.]:                    [  -0.071181,   -0.995349,    0.002937]

  V1^2 = 0.7777, V2^2 = 0.2223

  Important amplitudes:
     core i     occ j      vir a      vir b          v   
    ------------------------------------------------------
     5 (A) B              24 (A) B                -0.5218
     5 (A) A              22 (A) A                -0.4495
    ------------------------------------------------------
  ----------------------------------------------------------------------------


  Excited state  7 (A)                                             [converged]
  ----------------------------------------------------------------------------
  Term symbol:  8 (-) A                                     R^2 =  1.24305e-13

  Total energy:                                           -424.8106671260 a.u.
  Excitation energy:                                             300.975205 eV

  Osc. strength:                                                      0.097496
  Trans. dip. moment [a.u.]:           [   0.090180,    0.020703,    0.068272]
  <i|r^2|0> [a.u.]:                    [  -0.243503,    0.184435,    0.004564]

  V1^2 = 0.7777, V2^2 = 0.2223

  Important amplitudes:
     core i     occ j      vir a      vir b          v   
    ------------------------------------------------------
     5 (A) B              25 (A) B                 0.5218
     5 (A) A              23 (A) A                 0.4495
    ------------------------------------------------------
  ----------------------------------------------------------------------------


  Excited state  8 (A)                                             [converged]
  ----------------------------------------------------------------------------
  Term symbol:  9 (-) A                                     R^2 =  1.02145e-13

  Total energy:                                           -424.8100164178 a.u.
  Excitation energy:                                             300.992911 eV

  Osc. strength:                                                      0.099755
  Trans. dip. moment [a.u.]:           [   0.067057,    0.016521,   -0.093584]
  <i|r^2|0> [a.u.]:                    [  -0.181087,    0.152267,   -0.001716]

  V1^2 = 0.7920, V2^2 = 0.2080

  Important amplitudes:
     core i     occ j      vir a      vir b          v   
    ------------------------------------------------------
     5 (A) B              22 (A) B                -0.6281
     5 (A) A              24 (A) A                -0.5435
    ------------------------------------------------------
  ----------------------------------------------------------------------------


  Excited state  9 (A)                                             [converged]
  ----------------------------------------------------------------------------
  Term symbol:  10 (-) A                                    R^2 =  2.00855e-13

  Total energy:                                           -424.7812448112 a.u.
  Excitation energy:                                             301.775827 eV

  Osc. strength:                                                      0.000000
  Trans. dip. moment [a.u.]:           [  -0.000014,    0.000004,    0.000018]
  <i|r^2|0> [a.u.]:                    [  -0.021195,   -0.021214,   -0.021217]

  V1^2 = 0.5443, V2^2 = 0.4557

  Important amplitudes:
     core i     occ j      vir a      vir b          v   
    ------------------------------------------------------
     5 (A) B              23 (A) B                -0.5344
     5 (A) A              25 (A) A                -0.4475
    ------------------------------------------------------
  ----------------------------------------------------------------------------


  Excited state 10 (A)                                             [converged]
  ----------------------------------------------------------------------------
  Term symbol:  11 (-) A                                    R^2 =  5.04051e-13

  Total energy:                                           -424.7663610294 a.u.
  Excitation energy:                                             302.180835 eV

  Osc. strength:                                                      0.000000
  Trans. dip. moment [a.u.]:           [   0.000000,   -0.000000,    0.000000]
  <i|r^2|0> [a.u.]:                    [  -0.000000,   -0.000012,    0.000012]

  V1^2 = 0.0001, V2^2 = 0.9999

  Important amplitudes:
     core i     occ j      vir a      vir b          v   
    ------------------------------------------------------
     5 (A) A   19 (A) B   22 (A) A   21 (A) B      0.1561
     5 (A) A   20 (A) B   23 (A) A   21 (A) B     -0.1561
    ------------------------------------------------------
  ----------------------------------------------------------------------------


  Excited state 11 (A)                                             [converged]
  ----------------------------------------------------------------------------
  Term symbol:  12 (-) A                                    R^2 =  2.78124e-13

  Total energy:                                           -424.7646478436 a.u.
  Excitation energy:                                             302.227453 eV

  Osc. strength:                                                      0.000000
  Trans. dip. moment [a.u.]:           [   0.000000,    0.000000,    0.000000]
  <i|r^2|0> [a.u.]:                    [  -0.000000,    0.000000,    0.000000]

  V1^2 = 0.0001, V2^2 = 0.9999

  Important amplitudes:
     core i     occ j      vir a      vir b          v   
    ------------------------------------------------------
     5 (A) A   16 (A) B   22 (A) A   21 (A) B      0.1514
     5 (A) A   17 (A) B   23 (A) A   21 (A) B     -0.1509
    ------------------------------------------------------
  ----------------------------------------------------------------------------


  Excited state 12 (A)                                             [converged]
  ----------------------------------------------------------------------------
  Term symbol:  13 (-) A                                    R^2 =  2.67299e-13

  Total energy:                                           -424.7642804888 a.u.
  Excitation energy:                                             302.237449 eV

  Osc. strength:                                                      0.000000
  Trans. dip. moment [a.u.]:           [  -0.000007,    0.000001,   -0.000005]
  <i|r^2|0> [a.u.]:                    [   0.000028,    0.000007,   -0.000010]

  V1^2 = 0.0008, V2^2 = 0.9992

  Important amplitudes:
     core i     occ j      vir a      vir b          v   
    ------------------------------------------------------
     5 (A) A   17 (A) B   24 (A) A   21 (A) B      0.2262
     5 (A) B   17 (A) B   21 (A) B   22 (A) B      0.2101
    ------------------------------------------------------
  ----------------------------------------------------------------------------


  Excited state 13 (A)                                             [converged]
  ----------------------------------------------------------------------------
  Term symbol:  14 (-) A                                    R^2 =  2.11485e-13

  Total energy:                                           -424.7642710068 a.u.
  Excitation energy:                                             302.237707 eV

  Osc. strength:                                                      0.000000
  Trans. dip. moment [a.u.]:           [  -0.000000,   -0.000008,   -0.000001]
  <i|r^2|0> [a.u.]:                    [   0.000000,   -0.000071,    0.000003]

  V1^2 = 0.0008, V2^2 = 0.9992

  Important amplitudes:
     core i     occ j      vir a      vir b          v   
    ------------------------------------------------------
     5 (A) A   16 (A) B   24 (A) A   21 (A) B      0.2259
     5 (A) B   16 (A) B   21 (A) B   22 (A) B      0.2100
    ------------------------------------------------------
  ----------------------------------------------------------------------------


  Excited state 14 (A)                                             [converged]
  ----------------------------------------------------------------------------
  Term symbol:  15 (-) A                                    R^2 =  4.55012e-13

  Total energy:                                           -424.7415609612 a.u.
  Excitation energy:                                             302.855679 eV

  Osc. strength:                                                      0.001241
  Trans. dip. moment [a.u.]:           [   0.007468,    0.001782,   -0.010406]
  <i|r^2|0> [a.u.]:                    [  -0.020260,    0.016565,   -0.000231]

  V1^2 = 0.0501, V2^2 = 0.9499

  Important amplitudes:
     core i     occ j      vir a      vir b          v   
    ------------------------------------------------------
     5 (A) B   18 (A) A   24 (A) A   21 (A) B     -0.3318
     5 (A) B              22 (A) B                -0.1990
    ------------------------------------------------------
  ----------------------------------------------------------------------------


  Excited state 15 (A)                                             [converged]
  ----------------------------------------------------------------------------
  Term symbol:  16 (-) A                                    R^2 =  4.75659e-13

  Total energy:                                           -424.7389581901 a.u.
  Excitation energy:                                             302.926504 eV

  Osc. strength:                                                      0.001294
  Trans. dip. moment [a.u.]:           [  -0.000751,    0.013074,    0.001703]
  <i|r^2|0> [a.u.]:                    [   0.002034,    0.116296,   -0.000241]

  V1^2 = 0.0450, V2^2 = 0.9550

  Important amplitudes:
     core i     occ j      vir a      vir b          v   
    ------------------------------------------------------
     5 (A) B   20 (A) A   25 (A) A   21 (A) B      0.1991
     5 (A) B   18 (A) A   22 (A) A   21 (A) B      0.1983
    ------------------------------------------------------
  ----------------------------------------------------------------------------


  Excited state 16 (A)                                             [converged]
  ----------------------------------------------------------------------------
  Term symbol:  17 (-) A                                    R^2 =  1.12032e-12

  Total energy:                                           -424.7389549633 a.u.
  Excitation energy:                                             302.926592 eV

  Osc. strength:                                                      0.001289
  Trans. dip. moment [a.u.]:           [  -0.010733,    0.000375,   -0.007639]
  <i|r^2|0> [a.u.]:                    [   0.029041,    0.003297,   -0.000640]

  V1^2 = 0.0449, V2^2 = 0.9551

  Important amplitudes:
     core i     occ j      vir a      vir b          v   
    ------------------------------------------------------
     5 (A) B   21 (A) A   25 (A) A   21 (A) B      0.1991
     5 (A) B   18 (A) A   23 (A) A   21 (A) B     -0.1981
    ------------------------------------------------------
  ----------------------------------------------------------------------------


  Excited state 17 (A)                                             [converged]
  ----------------------------------------------------------------------------
  Term symbol:  18 (-) A                                    R^2 =  7.34949e-13

  Total energy:                                           -424.7388465851 a.u.
  Excitation energy:                                             302.929541 eV

  Osc. strength:                                                      0.000000
  Trans. dip. moment [a.u.]:           [  -0.000148,    0.000037,   -0.000099]
  <i|r^2|0> [a.u.]:                    [   0.000400,    0.000325,   -0.000009]

  V1^2 = 0.0000, V2^2 = 1.0000

  Important amplitudes:
     core i     occ j      vir a      vir b          v   
    ------------------------------------------------------
     5 (A) B   21 (A) A   23 (A) A   21 (A) B     -0.2401
     5 (A) B   20 (A) A   22 (A) A   21 (A) B      0.2394
    ------------------------------------------------------
  ----------------------------------------------------------------------------


  Excited state 18 (A)                                             [converged]
  ----------------------------------------------------------------------------
  Term symbol:  19 (-) A                                    R^2 =  1.06351e-11

  Total energy:                                           -424.7370401314 a.u.
  Excitation energy:                                             302.978697 eV

  Osc. strength:                                                      0.000000
  Trans. dip. moment [a.u.]:           [  -0.000020,   -0.000001,   -0.000015]
  <i|r^2|0> [a.u.]:                    [   0.000055,    0.000031,   -0.000038]

  V1^2 = 0.0001, V2^2 = 0.9999

  Important amplitudes:
     core i     occ j      vir a      vir b          v   
    ------------------------------------------------------
     5 (A) B   20 (A) A   22 (A) A   21 (A) B     -0.2270
     5 (A) B   21 (A) A   23 (A) A   21 (A) B     -0.2262
    ------------------------------------------------------
  ----------------------------------------------------------------------------


  Excited state 19 (A)                                             [converged]
  ----------------------------------------------------------------------------
  Term symbol:  20 (-) A                                    R^2 =  2.77030e-12

  Total energy:                                           -424.7351129429 a.u.
  Excitation energy:                                             303.031139 eV

  Osc. strength:                                                      0.001382
  Trans. dip. moment [a.u.]:           [   0.011113,   -0.002255,    0.007585]
  <i|r^2|0> [a.u.]:                    [  -0.030104,   -0.020023,    0.000724]

  V1^2 = 0.0150, V2^2 = 0.9850

  Important amplitudes:
     core i     occ j      vir a      vir b          v   
    ------------------------------------------------------
     5 (A) B   21 (A) A   24 (A) A   21 (A) B      0.3270
     5 (A) B   21 (A) A   29 (A) A   21 (A) B     -0.1944
    ------------------------------------------------------
  ----------------------------------------------------------------------------


  Excited state 20 (A)                                             [converged]
  ----------------------------------------------------------------------------
  Term symbol:  21 (-) A                                    R^2 =  2.73235e-12

  Total energy:                                           -424.7351092228 a.u.
  Excitation energy:                                             303.031240 eV

  Osc. strength:                                                      0.001378
  Trans. dip. moment [a.u.]:           [  -0.000764,   -0.013300,   -0.002843]
  <i|r^2|0> [a.u.]:                    [   0.002066,   -0.118325,    0.000161]

  V1^2 = 0.0149, V2^2 = 0.9851

  Important amplitudes:
     core i     occ j      vir a      vir b          v   
    ------------------------------------------------------
     5 (A) B   20 (A) A   24 (A) A   21 (A) B     -0.3270
     5 (A) B   20 (A) A   29 (A) A   21 (A) B      0.1945
    ------------------------------------------------------
  ----------------------------------------------------------------------------


  Excited state 21 (A)                                             [converged]
  ----------------------------------------------------------------------------
  Term symbol:  22 (-) A                                    R^2 =  1.30614e-12

  Total energy:                                           -424.7294092100 a.u.
  Excitation energy:                                             303.186345 eV

  Osc. strength:                                                      0.000000
  Trans. dip. moment [a.u.]:           [  -0.000002,   -0.000005,    0.000002]
  <i|r^2|0> [a.u.]:                    [   0.008055,    0.008011,    0.008038]

  V1^2 = 0.1039, V2^2 = 0.8961

  Important amplitudes:
     core i     occ j      vir a      vir b          v   
    ------------------------------------------------------
     5 (A) B              23 (A) B                 0.2878
     5 (A) B   18 (A) A   25 (A) A   21 (A) B      0.2718
    ------------------------------------------------------
  ----------------------------------------------------------------------------


  Excited state 22 (A)                                             [converged]
  ----------------------------------------------------------------------------
  Term symbol:  23 (-) A                                    R^2 =  5.02639e-12

  Total energy:                                           -424.7261620972 a.u.
  Excitation energy:                                             303.274703 eV

  Osc. strength:                                                      0.001938
  Trans. dip. moment [a.u.]:           [  -0.009324,   -0.002238,    0.012994]
  <i|r^2|0> [a.u.]:                    [   0.025383,   -0.020947,    0.000323]

  V1^2 = 0.0548, V2^2 = 0.9452

  Important amplitudes:
     core i     occ j      vir a      vir b          v   
    ------------------------------------------------------
     5 (A) A   20 (A) B   22 (A) A   21 (A) B      0.2589
     5 (A) A   19 (A) B   23 (A) A   21 (A) B      0.2589
    ------------------------------------------------------
  ----------------------------------------------------------------------------


  Excited state 23 (A)                                             [converged]
  ----------------------------------------------------------------------------
  Term symbol:  24 (-) A                                    R^2 =  2.74643e-11

  Total energy:                                           -424.7212289275 a.u.
  Excitation energy:                                             303.408942 eV

  Osc. strength:                                                      0.001204
  Trans. dip. moment [a.u.]:           [  -0.000425,    0.012582,    0.001857]
  <i|r^2|0> [a.u.]:                    [   0.001158,    0.111982,   -0.000280]

  V1^2 = 0.0487, V2^2 = 0.9513

  Important amplitudes:
     core i     occ j      vir a      vir b          v   
    ------------------------------------------------------
     5 (A) A   20 (A) B   24 (A) A   21 (A) B      0.2220
     5 (A) B   20 (A) B   21 (A) B   22 (A) B      0.1898
    ------------------------------------------------------
  ----------------------------------------------------------------------------


  Excited state 24 (A)                                             [converged]
  ----------------------------------------------------------------------------
  Term symbol:  25 (-) A                                    R^2 =  3.01047e-11

  Total energy:                                           -424.7212226471 a.u.
  Excitation energy:                                             303.409113 eV

  Osc. strength:                                                      0.001204
  Trans. dip. moment [a.u.]:           [  -0.010381,    0.000730,   -0.007325]
  <i|r^2|0> [a.u.]:                    [   0.028283,    0.006448,   -0.000810]

  V1^2 = 0.0487, V2^2 = 0.9513

  Important amplitudes:
     core i     occ j      vir a      vir b          v   
    ------------------------------------------------------
     5 (A) A   19 (A) B   24 (A) A   21 (A) B     -0.2219
     5 (A) B   19 (A) B   21 (A) B   22 (A) B     -0.1897
    ------------------------------------------------------
  ----------------------------------------------------------------------------


  Excited state 25 (A)                                             [converged]
  ----------------------------------------------------------------------------
  Term symbol:  26 (-) A                                    R^2 =  8.39412e-08

  Total energy:                                           -424.6927349261 a.u.
  Excitation energy:                                             304.184303 eV

  Osc. strength:                                                      0.000000
  Trans. dip. moment [a.u.]:           [  -0.000000,    0.000000,   -0.000000]
  <i|r^2|0> [a.u.]:                    [   0.000001,   -0.000033,    0.000033]

  V1^2 = 0.0007, V2^2 = 0.9993

  Important amplitudes:
     core i     occ j      vir a      vir b          v   
    ------------------------------------------------------
     5 (A) A   19 (A) B   22 (A) A   21 (A) B      0.2341
     5 (A) A   20 (A) B   23 (A) A   21 (A) B     -0.2340
    ------------------------------------------------------
  ----------------------------------------------------------------------------


  Excited state 26 (A)                                             [converged]
  ----------------------------------------------------------------------------
  Term symbol:  27 (-) A                                    R^2 =  2.73915e-09

  Total energy:                                           -424.6888481630 a.u.
  Excitation energy:                                             304.290067 eV

  Osc. strength:                                                      0.000000
  Trans. dip. moment [a.u.]:           [   0.000001,   -0.000000,   -0.000001]
  <i|r^2|0> [a.u.]:                    [   0.001990,    0.001965,    0.002015]

  V1^2 = 0.1573, V2^2 = 0.8427

  Important amplitudes:
     core i     occ j      vir a      vir b          v   
    ------------------------------------------------------
     5 (A) A              25 (A) A                 0.3116
     5 (A) A   20 (A) B   23 (A) A   21 (A) B      0.2608
    ------------------------------------------------------
  ----------------------------------------------------------------------------


  Excited state 27 (A)                                             [converged]
  ----------------------------------------------------------------------------
  Term symbol:  28 (-) A                                    R^2 =  1.21150e-07

  Total energy:                                           -424.6830379068 a.u.
  Excitation energy:                                             304.448172 eV

  Osc. strength:                                                      0.000000
  Trans. dip. moment [a.u.]:           [   0.000001,   -0.000000,    0.000000]
  <i|r^2|0> [a.u.]:                    [  -0.000002,   -0.000001,    0.000000]

  V1^2 = 0.0007, V2^2 = 0.9993

  Important amplitudes:
     core i     occ j      vir a      vir b          v   
    ------------------------------------------------------
     5 (A) A   20 (A) B   22 (A) A   21 (A) B      0.2129
     5 (A) A   19 (A) B   23 (A) A   21 (A) B     -0.2129
    ------------------------------------------------------
  ----------------------------------------------------------------------------


  Excited state 28 (A)                                         [not converged]
  ----------------------------------------------------------------------------
  Term symbol:  29 (-) A                                    R^2 =  6.25573e-05

  Total energy:                                           -424.6677991862 a.u.
  Excitation energy:                                             304.862839 eV


  V1^2 = 0.0051, V2^2 = 0.9949

  Important amplitudes:
     core i     occ j      vir a      vir b          v   
    ------------------------------------------------------
     5 (A) A   17 (A) B   24 (A) A   21 (A) B     -0.2025
     5 (A) B   17 (A) B   21 (A) B   22 (A) B     -0.1957
    ------------------------------------------------------
  ----------------------------------------------------------------------------


  Excited state 29 (A)                                         [not converged]
  ----------------------------------------------------------------------------
  Term symbol:  30 (-) A                                    R^2 =  7.19122e-05

  Total energy:                                           -424.6677923134 a.u.
  Excitation energy:                                             304.863026 eV


  V1^2 = 0.0051, V2^2 = 0.9949

  Important amplitudes:
     core i     occ j      vir a      vir b          v   
    ------------------------------------------------------
     5 (A) A   16 (A) B   24 (A) A   21 (A) B      0.2024
     5 (A) B   16 (A) B   21 (A) B   22 (A) B      0.1956
    ------------------------------------------------------
  ----------------------------------------------------------------------------


  Excited state 30 (A)                                         [not converged]
  ----------------------------------------------------------------------------
  Term symbol:  31 (-) A                                    R^2 =  5.41690e-04

  Total energy:                                           -424.6558929678 a.u.
  Excitation energy:                                             305.186824 eV


  V1^2 = 0.0001, V2^2 = 0.9999

  Important amplitudes:
     core i     occ j      vir a      vir b          v   
    ------------------------------------------------------
     5 (A) B   16 (A) B   21 (A) B   24 (A) B     -0.2007
     5 (A) A   20 (A) B   22 (A) A   21 (A) B     -0.1558
    ------------------------------------------------------
  ----------------------------------------------------------------------------


--------------------------------------------------------------------------------
  Time of ADC calculation:  CPU 9294.18 s  wall 5460.94 s
================================================================================
 
 --------------------------------------------------------------
 
                    Orbital Energies (a.u.)
 --------------------------------------------------------------
 
 Alpha MOs
 -- Occupied --
-26.764 -26.764 -26.764 -26.763 -11.947  -2.177  -2.049  -2.049
 -2.048  -1.351  -1.245  -1.245  -1.237  -1.145  -1.112  -1.076
 -1.076  -1.067  -1.057  -1.036  -1.036
 -- Virtual --
  0.106   0.106   0.111   0.117   0.376   0.376   0.377   0.378
  0.943   0.961   1.005   1.005   1.006   1.109   1.251   1.261
  1.282   1.296   1.296   1.342   1.342   1.352   1.488   1.488
  1.492   1.760   1.763   1.763   1.786   1.787   1.906   1.908
  1.908   1.972   1.972   1.977   2.048   2.058   2.058   2.273
  2.603   2.603   2.609   2.829   2.839   3.054   3.097   3.097
  3.098   4.388   4.420   4.420   4.424   6.000
 
 Beta MOs
 -- Occupied --
-26.745 -26.745 -26.745 -26.745 -11.949  -2.139  -1.995  -1.994
 -1.994  -1.332  -1.223  -1.203  -1.203  -1.096  -1.043  -1.024
 -1.024  -0.943  -0.899  -0.899
 -- Virtual --
 -0.596   0.114   0.125   0.130   0.130   0.375   0.377   0.379
  0.379   0.967   1.011   1.015   1.017   1.017   1.114   1.260
  1.265   1.315   1.315   1.342   1.355   1.368   1.368   1.501
  1.501   1.508   1.782   1.782   1.783   1.806   1.811   1.916
  1.919   1.919   1.983   1.988   1.988   2.070   2.070   2.077
  2.280   2.613   2.617   2.617   2.838   2.838   3.064   3.104
  3.104   3.104   4.387   4.430   4.430   4.432   6.005
 --------------------------------------------------------------
 
          Ground-State Mulliken Net Atomic Charges

     Atom                 Charge (a.u.)    Spin (a.u.)
  --------------------------------------------------------
      1 C                     1.356921      -0.164289
      2 F                    -0.089227       0.291074
      3 F                    -0.089240       0.291065
      4 F                    -0.089230       0.291072
      5 F                    -0.089223       0.291078
  --------------------------------------------------------
  Sum of atomic charges =     1.000000
  Sum of spin   charges =     1.000000

 -----------------------------------------------------------------
                    Cartesian Multipole Moments
 -----------------------------------------------------------------
    Charge (ESU x 10^10)
                 4.8032
    Dipole Moment (Debye)
         X      -3.3591      Y      11.2859      Z      -0.0001
       Tot      11.7752
    Quadrupole Moments (Debye-Ang)
        XX     -18.1705     XY      -7.9081     YY       6.0590
        XZ       0.0896     YZ       0.0214     ZZ     -20.5801
    Octopole Moments (Debye-Ang^2)
       XXX      42.5280    XXY     -42.6731    XYY      -4.8701
       YYY     -82.2965    XXZ      -0.1253    XYZ       0.1955
       YYZ       0.7911    XZZ      13.8323    YZZ     -47.9677
       ZZZ      -0.6904
    Hexadecapole Moments (Debye-Ang^3)
      XXXX    -129.7552   XXXY      99.9215   XXYY    -132.3477
      XYYY      53.6610   YYYY    -603.3744   XXXZ       0.0312
      XXYZ      -0.1791   XYYZ      -0.6068   YYYZ       5.0371
      XXZZ     -32.7794   XYZZ      31.8588   YYZZ    -134.2890
      XZZZ       1.3669   YZZZ      -1.4869   ZZZZ     -68.1299
 -----------------------------------------------------------------
Archival summary:
1\1\tp-linux1\SP\HF\6-31G*\41(1+,2)\thomas\TueMar717:42:242017TueMar717:42:242017\0\\#,HF,6-31G*,\\1,2\C\F,1,1.30149\F,1,1.30149,2,109.471\F,1,1.30149,2,109.471,3,120,0\F,1,1.3015,2,109.471,3,-119.999,0\\HF=-435.011009\\@

 Total job time:  5502.79s(wall), 9326.26s(cpu) 
 Tue Mar  7 17:42:24 2017

        *************************************************************
        *                                                           *
        *  Thank you very much for using Q-Chem.  Have a nice day.  *
        *                                                           *
        *************************************************************


0 sent ACK to 0 
now end server 0 ... 
cleanup process ... done
