You are running Q-Chem version: 4.3

#
# job setting
#
local host:  tp-linux1
current dir: /home/thomas/cf4/adc_tests
input file:  cvs-adc2x-gs.inp
output file: 
nprocs     : 1
nthreads   : 4
#
# qchem installation setting
#
QC:          /mnt/software/qchem
QCAUX:       /mnt/software/qchem/qcaux
QCPROG:      /mnt/software/qchem/exe/qcprog.exe
QCPROG_S:    /mnt/software/qchem/exe/qcprog.exe_s
PARALLEL:    -DPARALLEL
QCMPI:       mpich
#
# qchem directory setting
#
qcrun:       qchem23435
QCSCRATCH:   /scratch/qchem
QCLOCALSCR:  
QCTMPDIR:    /scratch/qchem
QCFILEPREF:  /scratch/qchem/qchem23435
QCSAVEDIR:   
workdirs:    /scratch/qchem/qchem23435
workdir0:    /scratch/qchem/qchem23435
partmpdirs =  
#
# parallel setting
#
QCRSH:           ssh
QCMPI:           mpich
QCMPIRUN:        /mnt/software/qchem/bin/mpi/mpirun_qchem
QCMACHINEFILE:   /mnt/software/qchem/bin/mpi/machines
127.0.1.1 32

#
# env setting
#
exported envs:   QC QCAUX QCSCRATCH QCRUNNAME QCFILEPREF QCPROG QCPROG_S GUIFILE

Running Job 1 of 1 cvs-adc2x-gs.inp
qchem cvs-adc2x-gs.inp_23435.0 /scratch/qchem/qchem23435/ 1
/mnt/software/qchem/bin/mpi/mpirun_qchem -machinefile /mnt/software/qchem/bin/mpi/machines -np 1 /mnt/software/qchem/exe/qcprog.exe cvs-adc2x-gs.inp_23435.0 /scratch/qchem/qchem23435/

Process 0 of 1 is on tp-linux1 - thread support 0
initial socket setup ...start
initial socket setup ...done 
now start server 0 ... 

cmd = ssh tp-linux1 /mnt/software/qchem/bin/get_hostid 313604847 > /scratch/qchem/qchem23435/lic.dat
                  Welcome to Q-Chem
     A Quantum Leap Into The Future Of Chemistry


 Q-Chem 4.3, Q-Chem, Inc., Pleasanton, CA (2015)

 Y. Shao,  Z. Gan,  E. Epifanovsky,  A. T. B. Gilbert,  M. Wormit,  
 J. Kussmann,  A. W. Lange,  A. Behn,  J. Deng,  X. Feng,  D. Ghosh,  
 M. Goldey,  P. R. Horn,  L. D. Jacobson,  I. Kaliman,  R. Z. Khaliullin,  
 T. Kus,  A. Landau,  J. Liu,  E. I. Proynov,  Y. M. Rhee,  R. M. Richard,  
 M. A. Rohrdanz,  R. P. Steele,  E. J. Sundstrom,  H. L. Woodcock III,  
 P. M. Zimmerman,  D. Zuev,  B. Albrecht,  E. Alguire,  B. Austin,  
 S. A. Baeppler,  G. J. O. Beran,  Y. A. Bernard,  E. Berquist,  
 K. Brandhorst,  K. B. Bravaya,  S. T. Brown,  D. Casanova,  C.-M. Chang,  
 Y. Chen,  S. H. Chien,  K. D. Closser,  D. L. Crittenden,  M. Diedenhofen,  
 R. A. DiStasio Jr.,  H. Do,  A. D. Dutoi,  R. G. Edgar,  P.-T. Fang,  
 S. Fatehi,  Q. Feng,  L. Fusti-Molnar,  A. Ghysels,  
 A. Golubeva-Zadorozhnaya,  J. Gomes,  A. Gunina,  M. W. D. Hanson-Heine,  
 P. H. P. Harbach,  A. W. Hauser,  E. G. Hohenstein,  Z. C. Holden,  K. Hui,  
 T.-C. Jagau,  H. Ji,  B. Kaduk,  K. Khistyaev,  Jaehoon Kim,  Jihan Kim,  
 R. A. King,  P. Klunzinger,  D. Kosenkov,  T. Kowalczyk,  C. M. Krauter,  
 K. U. Lao,  A. Laurent,  K. V. Lawler,  S. Lehtola,  S. V. Levchenko,  
 C. Y. Lin,  Y.-S. Lin,  F. Liu,  E. Livshits,  R. C. Lochan,  A. Luenser,  
 P. Manohar,  S. F. Manzer,  S.-P. Mao,  N. Mardirossian,  A. V. Marenich,  
 L. A. Martinez-Martinez,  S. A. Maurer,  N. J. Mayhall,  K. Nanda,  
 C. M. Oana,  R. Olivares-Amaya,  D. P. O'Neill,  J. A. Parkhill,  
 T. M. Perrine,  R. Peverati,  P. A. Pieniazek,  F. Plasser,  A. Prociuk,  
 D. R. Rehn,  E. Rosta,  N. J. Russ,  N. Sergueev,  S. M. Sharada,  
 S. Sharma,  D. W. Small,  A. Sodt,  T. Stauch,  T. Stein,  D. Stuck,  
 Y.-C. Su,  A. J. W. Thom,  T. Tsuchimochi,  L. Vogt,  O. Vydrov,  T. Wang,  
 M. A. Watson,  J. Wenzel,  A. White,  C. F. Williams,  V. Vanovschi,  
 S. Yeganeh,  S. R. Yost,  Z.-Q. You,  I. Y. Zhang,  X. Zhang,  Y. Zhao,  
 B. R. Brooks,  G. K. L. Chan,  D. M. Chipman,  C. J. Cramer,  
 W. A. Goddard III,  M. S. Gordon,  W. J. Hehre,  A. Klamt,  
 H. F. Schaefer III,  M. W. Schmidt,  C. D. Sherrill,  D. G. Truhlar,  
 A. Warshel,  X. Xu,  A. Aspuru-Guzik,  R. Baer,  A. T. Bell,  N. A. Besley,  
 J.-D. Chai,  A. Dreuw,  B. D. Dunietz,  T. R. Furlani,  S. R. Gwaltney,  
 C.-P. Hsu,  Y. Jung,  J. Kong,  D. S. Lambrecht,  W. Liang,  C. Ochsenfeld,  
 V. A. Rassolov,  L. V. Slipchenko,  J. E. Subotnik,  T. Van Voorhis,  
 J. M. Herbert,  A. I. Krylov,  P. M. W. Gill,  M. Head-Gordon

 Contributors to earlier versions of Q-Chem not listed above: 
 R. D. Adamson,  J. Baker,  E. F. C. Byrd,  A. K. Chakraborty,  C.-L. Cheng,  
 H. Dachsel,  R. J. Doerksen,  G. Hawkins,  A. Heyden,  S. Hirata,  
 G. Kedziora,  F. J. Keil,  C. Kelley,  P. P. Korambath,  W. Kurlancheek,  
 A. M. Lee,  M. S. Lee,  D. Liotard,  I. Lotan,  P. E. Maslen,  N. Nair,  
 D. Neuhauser,  R. Olson,  B. Peters,  J. Ritchie,  N. E. Schultz,  
 N. Shenvi,  A. C. Simmonett,  K. S. Thanthiriwatte,  Q. Wu,  W. Zhang

 Please cite Q-Chem as follows:
 Y. Shao et al., Mol. Phys. 113, 184-215 (2015)
 DOI: 10.1080/00268976.2014.952696

 Q-Chem 4.3.0 for Intel X86 Linux

 Parts of Q-Chem use Armadillo 5.200.1 (Boston Tea Smuggler).
 http://arma.sourceforge.net/

 Q-Chem begins on Tue Mar  7 15:15:52 2017  

Host: 
0

     Scratch files written to /scratch/qchem/qchem23435//
 Nov1815 1189b_ 19540  19532 5443   
 Parallel job on  1  processors
Processing $rem in /mnt/software/qchem/config/preferences.
 MEM_TOTAL  2000 

Checking the input file for inconsistencies... 	...done.

--------------------------------------------------------------
User input:
--------------------------------------------------------------
$comment
job3 - cvs-adc(2)-x calculation with mom to prevent collapse to ground state
$end

$molecule
0 1
C    -0.69934   2.34967   0.00000
F     0.60215   2.34967  -0.00000
F    -1.13316   3.29245   0.78541
F    -1.13317   1.19810   0.42375
F    -1.13317   2.55847  -1.20916
$end

$rem
mem_total 3000
mem_static 1500
sym_ignore true
method cvs-adc(2)-x
basis 6-31G*
ee_singlets 30
cc_rest_occ 1                  !only excitations from the 1st orbital (C 1s)
unrestricted  true
max_scf_cycles 200
$end

--------------------------------------------------------------
 ----------------------------------------------------------------
             Standard Nuclear Orientation (Angstroms)
    I     Atom           X                Y                Z
 ----------------------------------------------------------------
    1      C      -0.6993400000     2.3496700000     0.0000000000
    2      F       0.6021500000     2.3496700000     0.0000000000
    3      F      -1.1331600000     3.2924500000     0.7854100000
    4      F      -1.1331700000     1.1981000000     0.4237500000
    5      F      -1.1331700000     2.5584700000    -1.2091600000
 ----------------------------------------------------------------
 Nuclear Repulsion Energy =   208.8311212848 hartrees
 There are       21 alpha and       21 beta electrons
 Requested basis set is 6-31G(d)
 There are 20 shells and 75 basis functions

 Total QAlloc Memory Limit   3000 MB
 Mega-Array Size      1467 MB
 MEM_STATIC part      1500 MB

                       Distance Matrix (Angstroms)
             C (  1)   F (  2)   F (  3)   F (  4)
   F (  2)  1.301490
   F (  3)  1.301500  2.125324
   F (  4)  1.301494  2.125327  2.125347
   F (  5)  1.301489  2.125324  2.125332  2.125324
 
 tim1(1): 
  0.000000000000000E+000
 tim1(2): 
  0.000000000000000E+000
 A cutoff of  1.0D-11 yielded    204 shell pairs
 There are      2979 function pairs
 
 -------------------------------------------------------
 OpenMP Integral Computing Module                       
 Release: version 1.0, May 2013, Q-Chem Inc. Pittsburgh 
 -------------------------------------------------------
 Integral Job Info:
 Integral job number is                      11
 Integral operator is                         1
 short-range coefficients                     0
 long-range coefficients              100000000
 Omega coefficients                           0
 if combine SR and LR in K                    0
 Integral screening is                        0
 Integral computing path is                   2
 max size of driver memory is            800000
 size of driver memory is                593474
 size of scratch memory is              2260544
 max col of scratch BK array               1296
 max len of scratch array in speh3          155
 max len of scratch index in speh4           18
 max int batch size is                      520
 min int batch size is                       52
 fixed nKL is                                52
 max L of basis functions is                  2
 order of int derivative is                   0
 number of shells is                         20
 number of basis is                          75
 number of cartesian basis is                75
 number of contracted shell pairs           204
 number of primitive shell pairs           1074
 maxK2 (contraction) of shell pair           36
 max number of K2 of shell pair               1
 max number of CS2 of shell pair             37
 max number of PS2 of shell pair            222
 mem total for path MDJ                   21832
 -------------------------------------------------------
 Smallest overlap matrix eigenvalue = 1.75E-03

 Scale SEOQF with 1.000000e+00/1.000000e-01/1.000000e+00

 Standard Electronic Orientation quadrupole field applied
 Nucleus-field energy     =     0.0000000108 hartrees
 Guess from superposition of atomic densities
 Warning:  Energy on first SCF cycle will be non-variational
 An unrestricted Hartree-Fock SCF calculation will be
 performed using Pulay DIIS extrapolation
 SCF converges when DIIS error is below 1.0E-08
 using 4 threads for integral computing 
 ---------------------------------------
  Cycle       Energy         DIIS Error
 ---------------------------------------
    1    -436.6440699958      8.95E-02
    2    -435.4874197394      1.71E-02
    3    -435.6052807799      9.43E-03
    4    -435.6444123078      9.76E-04
    5    -435.6451114713      2.96E-04
    6    -435.6452032763      4.99E-05
    7    -435.6452068068      5.98E-06
    8    -435.6452068512      1.08E-06
    9    -435.6452068526      3.96E-07
   10    -435.6452068527      1.51E-07
   11    -435.6452068527      2.22E-08
   12    -435.6452068527      1.94E-09 Convergence criterion met
 ---------------------------------------
 <S^2> = 0.0000
 SCF time:  CPU 6.41 s  wall 7.67 s
 SCF   energy in the final basis set = -435.6452068527
 Total energy in the final basis set = -435.6452068527
================================================================================
|                                                                              |
|                                 A D C  M A N                                 |
|                                                                              |
 ------------------------------------------------------------------------------ 
|                                                                              |
| Components:                                                                  |
|                                                                              |
| - libvmm - 1.2-release                                                       |
|   Authors:                                                                   |
|   Evgeny Epifanovsky, Ilya Kaliman                                           |
|                                                                              |
| - libtensor - 2.4-trunk                                                      |
|   Authors:                                                                   |
|   Evgeny Epifanovsky, Michael Wormit, Dmitry Zuev, Sam Manzer                |
|                                                                              |
| - libwfa - 1.1-beta                                                          |
|   Authors:                                                                   |
|   Felix Plasser, Stefanie Baeppler, Benjamin Thomitzni, Michael Wormit       |
|                                                                              |
| - libadc - 1.0-beta                                                          |
|   Authors:                                                                   |
|   Michael Wormit, Philipp H. P. Harbach, Caroline Krauter, Dirk Rehn,        |
|   Matthias Schneider, Jan Wenzel                                             |
|                                                                              |
| - adcman - 2.4-beta                                                          |
|   Authors:                                                                   |
|   Michael Wormit, Philipp H. P. Harbach, Caroline Krauter, Dirk Rehn,        |
|   Jan Wenzel, Andreas Dreuw                                                  |
|                                                                              |
| Authors of earlier versions of ADCMAN:                                       |
| Andreas Dreuw, Jan Hendrik Starcke, Dirk Rehn, Michael Wormit                |
|                                                                              |
================================================================================

 
 Alpha MOs, Unrestricted
 -- Occupied --                  
-26.374 -26.374 -26.374 -26.374 -11.605  -1.813  -1.679  -1.679
  1 A     2 A     3 A     4 A     5 A     6 A     7 A     8 A                  
 -1.679  -1.005  -0.890  -0.890  -0.890  -0.759  -0.759  -0.705
  9 A    10 A    11 A    12 A    13 A    14 A    15 A    16 A                  
 -0.705  -0.705  -0.673  -0.673  -0.673
 17 A    18 A    19 A    20 A    21 A                                          
 -- Virtual --                   
  0.438   0.438   0.438   0.442   0.676   0.676   0.676   0.689
 22 A    23 A    24 A    25 A    26 A    27 A    28 A    29 A                  
  1.297   1.297   1.300   1.300   1.300   1.408   1.572   1.572
 30 A    31 A    32 A    33 A    34 A    35 A    36 A    37 A                  
  1.613   1.613   1.613   1.659   1.659   1.659   1.817   1.817
 38 A    39 A    40 A    41 A    42 A    43 A    44 A    45 A                  
  1.817   2.090   2.090   2.090   2.117   2.117   2.222   2.222
 46 A    47 A    48 A    49 A    50 A    51 A    52 A    53 A                  
  2.222   2.310   2.310   2.310   2.389   2.389   2.389   2.585
 54 A    55 A    56 A    57 A    58 A    59 A    60 A    61 A                  
  2.942   2.942   2.942   3.163   3.163   3.386   3.426   3.426
 62 A    63 A    64 A    65 A    66 A    67 A    68 A    69 A                  
  3.426   4.713   4.733   4.733   4.733   6.301
 70 A    71 A    72 A    73 A    74 A    75 A                                  
 
 Beta MOs, Unrestricted
 -- Occupied --                  
-26.374 -26.374 -26.374 -26.374 -11.605  -1.813  -1.679  -1.679
  1 A     2 A     3 A     4 A     5 A     6 A     7 A     8 A                  
 -1.679  -1.005  -0.890  -0.890  -0.890  -0.759  -0.759  -0.705
  9 A    10 A    11 A    12 A    13 A    14 A    15 A    16 A                  
 -0.705  -0.705  -0.673  -0.673  -0.673
 17 A    18 A    19 A    20 A    21 A                                          
 -- Virtual --                   
  0.438   0.438   0.438   0.442   0.676   0.676   0.676   0.689
 22 A    23 A    24 A    25 A    26 A    27 A    28 A    29 A                  
  1.297   1.297   1.300   1.300   1.300   1.408   1.572   1.572
 30 A    31 A    32 A    33 A    34 A    35 A    36 A    37 A                  
  1.613   1.613   1.613   1.659   1.659   1.659   1.817   1.817
 38 A    39 A    40 A    41 A    42 A    43 A    44 A    45 A                  
  1.817   2.090   2.090   2.090   2.117   2.117   2.222   2.222
 46 A    47 A    48 A    49 A    50 A    51 A    52 A    53 A                  
  2.222   2.310   2.310   2.310   2.389   2.389   2.389   2.585
 54 A    55 A    56 A    57 A    58 A    59 A    60 A    61 A                  
  2.942   2.942   2.942   3.163   3.163   3.386   3.426   3.426
 62 A    63 A    64 A    65 A    66 A    67 A    68 A    69 A                  
  3.426   4.713   4.733   4.733   4.733   6.301
 70 A    71 A    72 A    73 A    74 A    75 A                                  
 

--------------------------------------------------------------------------------
                                   HF Summary                                   
--------------------------------------------------------------------------------
  Energy:                                                 -435.6452068527 a.u.
  Dip. moment [a.u.]:                  [ -55.505392,  186.489958,    0.000009]
  Total dipole [Debye]:                                             494.559906
  <r^2> [a.u.]:                        [ 164.479767,  919.187571,   91.126486]
  Total <r^2> [a.u.]:                                              1174.793823
--------------------------------------------------------------------------------

--------------------------------------------------------------------------------
                                 MP(2) Summary                                  
--------------------------------------------------------------------------------
  Energy contribution:                                      -0.8107746069 a.u.
  Total energy:                                           -436.4559814596 a.u.
  Dip. moment [a.u.]:                  [ -55.505404,  186.489909,    0.000006]
  Total dipole [Debye]:                                             494.559795
  <r^2> [a.u.]:                        [ 164.420261,  919.127586,   91.066944]
  Total <r^2> [a.u.]:                                              1174.614790
--------------------------------------------------------------------------------
  Starting Davidson ... 
--------------------------------------------------------------------------------
   It NVec Conv  Avg. Norm  Max. Norm  Conv. states           Remark
--------------------------------------------------------------------------------
        30    0  2.373e-01  1.383e+00 26.2575 n n n n n n n n Guess.
    1   60    0  1.081e-01  1.043e+00 25.8821 n n n n n n n n 
    2   90    0  5.930e-02  7.428e-01 25.8692 n n n n n n n n 
You are running Q-Chem version: 4.3

#
# job setting
#
local host:  tp-linux1
current dir: /home/thomas/cf4/adc_tests
input file:  cvs-adc2x-gs.inp
output file: cvs-adc2x-gs.out
nprocs     : 1
nthreads   : 4
#
# qchem installation setting
#
QC:          /mnt/software/qchem
QCAUX:       /mnt/software/qchem/qcaux
QCPROG:      /mnt/software/qchem/exe/qcprog.exe
QCPROG_S:    /mnt/software/qchem/exe/qcprog.exe_s
PARALLEL:    -DPARALLEL
QCMPI:       mpich
#
# qchem directory setting
#
qcrun:       qchem23625
QCSCRATCH:   /scratch/qchem
QCLOCALSCR:  
QCTMPDIR:    /scratch/qchem
QCFILEPREF:  /scratch/qchem/qchem23625
QCSAVEDIR:   
workdirs:    /scratch/qchem/qchem23625
workdir0:    /scratch/qchem/qchem23625
partmpdirs =  
#
# parallel setting
#
QCRSH:           ssh
QCMPI:           mpich
QCMPIRUN:        /mnt/software/qchem/bin/mpi/mpirun_qchem
QCMACHINEFILE:   /mnt/software/qchem/bin/mpi/machines
127.0.1.1 32

#
# env setting
#
exported envs:   QC QCAUX QCSCRATCH QCRUNNAME QCFILEPREF QCPROG QCPROG_S GUIFILE
    3  120    0  4.187e-02  5.324e-01 25.8686 n n n n n n n n 
You are running Q-Chem version: 4.3

#
# job setting
#
local host:  tp-linux1
current dir: /home/thomas/cf4/adc_tests
input file:  cvs-adc2s-gs.inp
output file: cvs-adc2s-gs.out
nprocs     : 1
nthreads   : 4
#
# qchem installation setting
#
QC:          /mnt/software/qchem
QCAUX:       /mnt/software/qchem/qcaux
QCPROG:      /mnt/software/qchem/exe/qcprog.exe
QCPROG_S:    /mnt/software/qchem/exe/qcprog.exe_s
PARALLEL:    -DPARALLEL
QCMPI:       mpich
#
# qchem directory setting
#
qcrun:       qchem23806
QCSCRATCH:   /scratch/qchem
QCLOCALSCR:  
QCTMPDIR:    /scratch/qchem
QCFILEPREF:  /scratch/qchem/qchem23806
QCSAVEDIR:   
workdirs:    /scratch/qchem/qchem23806
workdir0:    /scratch/qchem/qchem23806
partmpdirs =  
#
# parallel setting
#
QCRSH:           ssh
QCMPI:           mpich
QCMPIRUN:        /mnt/software/qchem/bin/mpi/mpirun_qchem
QCMACHINEFILE:   /mnt/software/qchem/bin/mpi/machines
127.0.1.1 32

#
# env setting
#
exported envs:   QC QCAUX QCSCRATCH QCRUNNAME QCFILEPREF QCPROG QCPROG_S GUIFILE
remove work dirs /scratch/qchem/qchem23806.0 -- /scratch/qchem/qchem23806.0
rm -rf /scratch/qchem/qchem23806.0
rm -rf /scratch/qchem/qchem23806
    4  150    0  3.186e-02  4.225e-01 25.8686 n n n n n n n n 
    5   60    0  2.151e-02  2.692e-01 25.8686 n n n n n n n n Subspace collapsed.
    6   90    0  1.658e-02  2.005e-01 25.8686 n n n n n n n n 
    7  120    0  1.329e-02  1.640e-01 25.8686 n n n n n n n n 
You are running Q-Chem version: 4.3

#
# job setting
#
local host:  tp-linux1
current dir: /home/thomas/cf4/adc_tests
input file:  cvs-adc2x.inp
output file: cvs-adc2x.out
nprocs     : 1
nthreads   : 4
#
# qchem installation setting
#
QC:          /mnt/software/qchem
QCAUX:       /mnt/software/qchem/qcaux
QCPROG:      /mnt/software/qchem/exe/qcprog.exe
QCPROG_S:    /mnt/software/qchem/exe/qcprog.exe_s
PARALLEL:    -DPARALLEL
QCMPI:       mpich
#
# qchem directory setting
#
qcrun:       qchem24157
QCSCRATCH:   /scratch/qchem
QCLOCALSCR:  
QCTMPDIR:    /scratch/qchem
QCFILEPREF:  /scratch/qchem/qchem24157
QCSAVEDIR:   
workdirs:    /scratch/qchem/qchem24157
workdir0:    /scratch/qchem/qchem24157
partmpdirs =  
#
# parallel setting
#
QCRSH:           ssh
QCMPI:           mpich
QCMPIRUN:        /mnt/software/qchem/bin/mpi/mpirun_qchem
QCMACHINEFILE:   /mnt/software/qchem/bin/mpi/machines
127.0.1.1 32

#
# env setting
#
exported envs:   QC QCAUX QCSCRATCH QCRUNNAME QCFILEPREF QCPROG QCPROG_S GUIFILE
You are running Q-Chem version: 4.3

#
# job setting
#
local host:  tp-linux1
current dir: /home/thomas/cf4/adc_tests
input file:  cvs-adc2s.inp
output file: cvs-adc2s.out
nprocs     : 1
nthreads   : 4
#
# qchem installation setting
#
QC:          /mnt/software/qchem
QCAUX:       /mnt/software/qchem/qcaux
QCPROG:      /mnt/software/qchem/exe/qcprog.exe
QCPROG_S:    /mnt/software/qchem/exe/qcprog.exe_s
PARALLEL:    -DPARALLEL
QCMPI:       mpich
#
# qchem directory setting
#
qcrun:       qchem24340
QCSCRATCH:   /scratch/qchem
QCLOCALSCR:  
QCTMPDIR:    /scratch/qchem
QCFILEPREF:  /scratch/qchem/qchem24340
QCSAVEDIR:   
workdirs:    /scratch/qchem/qchem24340
workdir0:    /scratch/qchem/qchem24340
partmpdirs =  
#
# parallel setting
#
QCRSH:           ssh
QCMPI:           mpich
QCMPIRUN:        /mnt/software/qchem/bin/mpi/mpirun_qchem
QCMACHINEFILE:   /mnt/software/qchem/bin/mpi/machines
127.0.1.1 32

#
# env setting
#
exported envs:   QC QCAUX QCSCRATCH QCRUNNAME QCFILEPREF QCPROG QCPROG_S GUIFILE
    8  150    0  1.103e-02  1.519e-01 25.8686 n n n n n n n n 
    9   60    0  7.584e-03  9.898e-02 25.8686 n n n n n n n n Subspace collapsed.
   10   90    0  9.747e-03  1.277e-01 25.8686 n n n n n n n n 
   11  120    3  8.144e-03  1.194e-01 25.8686 y y y n n n n n 
   12  150    9  6.666e-03  9.260e-02 25.8686 y y y y y y y y 
   13   60   12  3.939e-03  5.280e-02 25.8686 y y y y y y y y Subspace collapsed.
You are running Q-Chem version: 4.3

#
# job setting
#
local host:  tp-linux1
current dir: /home/thomas/cf4/adc_tests
input file:  cvs-adc3.inp
output file: cvs-adc3.out
nprocs     : 1
nthreads   : 4
#
# qchem installation setting
#
QC:          /mnt/software/qchem
QCAUX:       /mnt/software/qchem/qcaux
QCPROG:      /mnt/software/qchem/exe/qcprog.exe
QCPROG_S:    /mnt/software/qchem/exe/qcprog.exe_s
PARALLEL:    -DPARALLEL
QCMPI:       mpich
#
# qchem directory setting
#
qcrun:       qchem24632
QCSCRATCH:   /scratch/qchem
QCLOCALSCR:  
QCTMPDIR:    /scratch/qchem
QCFILEPREF:  /scratch/qchem/qchem24632
QCSAVEDIR:   
workdirs:    /scratch/qchem/qchem24632
workdir0:    /scratch/qchem/qchem24632
partmpdirs =  
#
# parallel setting
#
QCRSH:           ssh
QCMPI:           mpich
QCMPIRUN:        /mnt/software/qchem/bin/mpi/mpirun_qchem
QCMACHINEFILE:   /mnt/software/qchem/bin/mpi/machines
127.0.1.1 32

#
# env setting
#
exported envs:   QC QCAUX QCSCRATCH QCRUNNAME QCFILEPREF QCPROG QCPROG_S GUIFILE
remove work dirs /scratch/qchem/qchem24632.0 -- /scratch/qchem/qchem24632.0
rm -rf /scratch/qchem/qchem24632.0
rm -rf /scratch/qchem/qchem24632
   14   90   16  4.727e-03  7.020e-02 25.8686 y y y y y y y y 
   15  120   16  4.040e-03  5.729e-02 25.8686 y y y y y y y y 
   16  150   16  3.781e-03  6.164e-02 25.8686 y y y y y y y y 
   17   60   16  2.335e-03  3.572e-02 25.8686 y y y y y y y y Subspace collapsed.
   18   90   16  2.295e-03  3.650e-02 25.8686 y y y y y y y y 
   19  120   16  1.736e-03  2.594e-02 25.8686 y y y y y y y y 
You are running Q-Chem version: 4.3

#
# job setting
#
local host:  tp-linux1
current dir: /home/thomas/cf4/adc_tests
input file:  cvs-adc1.inp
output file: cvs-adc1.out
nprocs     : 1
nthreads   : 4
#
# qchem installation setting
#
QC:          /mnt/software/qchem
QCAUX:       /mnt/software/qchem/qcaux
QCPROG:      /mnt/software/qchem/exe/qcprog.exe
QCPROG_S:    /mnt/software/qchem/exe/qcprog.exe_s
PARALLEL:    -DPARALLEL
QCMPI:       mpich
#
# qchem directory setting
#
qcrun:       qchem24886
QCSCRATCH:   /scratch/qchem
QCLOCALSCR:  
QCTMPDIR:    /scratch/qchem
QCFILEPREF:  /scratch/qchem/qchem24886
QCSAVEDIR:   
workdirs:    /scratch/qchem/qchem24886
workdir0:    /scratch/qchem/qchem24886
partmpdirs =  
#
# parallel setting
#
QCRSH:           ssh
QCMPI:           mpich
QCMPIRUN:        /mnt/software/qchem/bin/mpi/mpirun_qchem
QCMACHINEFILE:   /mnt/software/qchem/bin/mpi/machines
127.0.1.1 32

#
# env setting
#
exported envs:   QC QCAUX QCSCRATCH QCRUNNAME QCFILEPREF QCPROG QCPROG_S GUIFILE
remove work dirs /scratch/qchem/qchem24886.0 -- /scratch/qchem/qchem24886.0
rm -rf /scratch/qchem/qchem24886.0
rm -rf /scratch/qchem/qchem24886
   20  150   16  1.880e-03  3.082e-02 25.8686 y y y y y y y y 
   21   60   16  1.080e-03  1.782e-02 25.8686 y y y y y y y y Subspace collapsed.
   22   60   16  1.080e-03  1.782e-02 25.8686 y y y y y y y y 
   23   90   16  1.196e-03  1.982e-02 25.8686 y y y y y y y y 
   24  117   16  1.046e-03  1.722e-02 25.8686 y y y y y y y y 
   25  141   16  1.118e-03  2.125e-02 25.8686 y y y y y y y y 
   26  150   16  1.145e-03  2.233e-02 25.8686 y y y y y y y y 
   27   52   16  6.616e-04  1.254e-02 25.8686 y y y y y y y y Subspace collapsed.
   28   74   16  7.219e-04  1.525e-02 25.8686 y y y y y y y y 
   29   75   16  7.211e-04  1.522e-02 25.8686 y y y y y y y y 
   30   75   16  7.211e-04  1.522e-02 25.8686 y y y y y y y y 
   31  105   16  6.324e-04  1.403e-02 25.8686 y y y y y y y y 
   32  106   16  6.319e-04  1.401e-02 25.8686 y y y y y y y y 
   33  106   16  6.319e-04  1.401e-02 25.8686 y y y y y y y y 
   34  106   16  6.319e-04  1.401e-02 25.8686 y y y y y y y y 
   35  136   16  7.285e-04  1.663e-02 25.8686 y y y y y y y y 
   36  150   16  8.023e-04  2.016e-02 25.8686 y y y y y y y y 
   37   44   16  3.868e-04  9.977e-03 25.8686 y y y y y y y y Subspace collapsed.
   38   58   16  4.221e-04  1.151e-02 25.8686 y y y y y y y y 
   39   72   16  4.165e-04  1.155e-02 25.8686 y y y y y y y y 
   40   86   16  4.346e-04  1.242e-02 25.8686 y y y y y y y y 
   41  100   16  6.521e-04  1.918e-02 25.8686 y y y y y y y y 
   42  114   16  7.378e-04  2.185e-02 25.8686 y y y y y y y y 
   43  128   16  6.566e-04  1.950e-02 25.8686 y y y y y y y y 
   44  142   16  6.069e-04  1.811e-02 25.8686 y y y y y y y y 
   45  150   16  6.168e-04  1.845e-02 25.8686 y y y y y y y y 
   46   44   16  3.388e-04  1.013e-02 25.8686 y y y y y y y y Subspace collapsed.
   47   58   16  3.767e-04  1.127e-02 25.8686 y y y y y y y y 
   48   72   16  3.201e-04  9.583e-03 25.8686 y y y y y y y y 
   49   86   16  2.594e-04  7.770e-03 25.8686 y y y y y y y y 
   50  100   17  2.244e-04  6.724e-03 25.8686 y y y y y y y y 
   51  114   17  1.880e-04  5.634e-03 25.8686 y y y y y y y y 
   52  128   17  1.504e-04  4.507e-03 25.8686 y y y y y y y y 
   53  142   17  1.457e-04  4.368e-03 25.8686 y y y y y y y y 
   54  142   17  1.457e-04  4.368e-03 25.8686 y y y y y y y y 
   55  142   17  1.457e-04  4.368e-03 25.8686 y y y y y y y y 
   56  150   17  1.445e-04  4.330e-03 25.8686 y y y y y y y y 
   57   31   17  1.445e-04  4.329e-03 25.8686 y y y y y y y y Subspace collapsed.
   58   31   17  1.445e-04  4.329e-03 25.8686 y y y y y y y y 
   59   32   17  1.445e-04  4.329e-03 25.8686 y y y y y y y y 
--------------------------------------------------------------------------------
  Davidson Summary: 
 ------------------------------------------------------------
  State  0: excitation energy =  25.8686 a.u.   (converged)
  State  1: excitation energy =  25.9055 a.u.   (converged)
  State  2: excitation energy =  25.9366 a.u.   (converged)
  State  3: excitation energy =  25.9418 a.u.   (converged)
  State  4: excitation energy =  25.9464 a.u.   (converged)
  State  5: excitation energy =  25.9490 a.u.   (converged)
  State  6: excitation energy =  25.9843 a.u.   (converged)
  State  7: excitation energy =  25.9902 a.u.   (converged)
  State  8: excitation energy =  26.1892 a.u.   (converged)
  State  9: excitation energy =  26.1976 a.u.   (converged)
  State 10: excitation energy =  26.2280 a.u.   (converged)
  State 11: excitation energy =  26.2290 a.u.   (converged)
  State 12: excitation energy =  26.2320 a.u.   (converged)
  State 13: excitation energy =  26.2324 a.u.   (converged)
  State 14: excitation energy =  26.2618 a.u.   (converged)
  State 15: excitation energy =  26.2635 a.u.   (converged)
  State 16: excitation energy =  26.7562 a.u.   (not converged)
  State 17: excitation energy =  26.7569 a.u.   (not converged)
  State 18: excitation energy =  26.7655 a.u.   (converged)
  State 19: excitation energy =  26.7797 a.u.   (not converged)
  State 20: excitation energy =  26.7819 a.u.   (not converged)
  State 21: excitation energy =  26.7854 a.u.   (not converged)
  State 22: excitation energy =  26.7864 a.u.   (not converged)
  State 23: excitation energy =  26.7868 a.u.   (not converged)
  State 24: excitation energy =  26.7878 a.u.   (not converged)
  State 25: excitation energy =  26.7965 a.u.   (not converged)
  State 26: excitation energy =  26.8002 a.u.   (not converged)
  State 27: excitation energy =  26.8038 a.u.   (not converged)
  State 28: excitation energy =  26.8046 a.u.   (not converged)
  State 29: excitation energy =  26.8178 a.u.   (not converged)
 ------------------------------------------------------------


--------------------------------------------------------------------------------
                             Excited State Summary
--------------------------------------------------------------------------------

  Excited state  1 (A)                                             [converged]
  ----------------------------------------------------------------------------
  Term symbol:  2 (-) A                                     R^2 =  2.42495e-13

  Total energy:                                           -410.5873853433 a.u.
  Excitation energy:                                             703.920300 eV

  Osc. strength:                                                      0.000000
  Trans. dip. moment [a.u.]:           [   0.000000,    0.000000,   -0.000000]
  <i|r^2|0> [a.u.]:                    [  -0.000000,    0.000000,   -0.000000]

  V1^2 = 0.8871, V2^2 = 0.1129

  Important amplitudes:
     core i     occ j      vir a      vir b          v   
    ------------------------------------------------------
     1 (A) B              24 (A) B                 0.4282
     1 (A) A              24 (A) A                -0.4282
    ------------------------------------------------------
  ----------------------------------------------------------------------------


  Excited state  2 (A)                                             [converged]
  ----------------------------------------------------------------------------
  Term symbol:  3 (-) A                                     R^2 =  2.34759e-13

  Total energy:                                           -410.5504861514 a.u.
  Excitation energy:                                             704.924378 eV

  Osc. strength:                                                      0.045702
  Trans. dip. moment [a.u.]:           [   0.017140,    0.044154,   -0.020073]
  <i|r^2|0> [a.u.]:                    [  -0.050983,    0.260942,   -0.002766]

  V1^2 = 0.8804, V2^2 = 0.1196

  Important amplitudes:
     core i     occ j      vir a      vir b          v   
    ------------------------------------------------------
     1 (A) A              24 (A) A                 0.4467
     1 (A) B              24 (A) B                 0.4467
    ------------------------------------------------------
  ----------------------------------------------------------------------------


  Excited state  3 (A)                                             [converged]
  ----------------------------------------------------------------------------
  Term symbol:  4 (-) A                                     R^2 =  3.89589e-13

  Total energy:                                           -410.5194143784 a.u.
  Excitation energy:                                             705.769884 eV

  Osc. strength:                                                      0.000000
  Trans. dip. moment [a.u.]:           [   0.000000,    0.000000,    0.000000]
  <i|r^2|0> [a.u.]:                    [  -0.000000,    0.000000,   -0.000000]

  V1^2 = 0.8526, V2^2 = 0.1474

  Important amplitudes:
     core i     occ j      vir a      vir b          v   
    ------------------------------------------------------
     1 (A) B              23 (A) B                -0.5859
     1 (A) A              23 (A) A                 0.5859
    ------------------------------------------------------
  ----------------------------------------------------------------------------


  Excited state  4 (A)                                             [converged]
  ----------------------------------------------------------------------------
  Term symbol:  5 (-) A                                     R^2 =  2.95427e-13

  Total energy:                                           -410.5141629703 a.u.
  Excitation energy:                                             705.912782 eV

  Osc. strength:                                                      0.000000
  Trans. dip. moment [a.u.]:           [   0.000000,   -0.000000,   -0.000000]
  <i|r^2|0> [a.u.]:                    [  -0.000000,   -0.000000,   -0.000000]

  V1^2 = 0.8512, V2^2 = 0.1488

  Important amplitudes:
     core i     occ j      vir a      vir b          v   
    ------------------------------------------------------
     1 (A) B              22 (A) B                -0.6304
     1 (A) A              22 (A) A                 0.6304
    ------------------------------------------------------
  ----------------------------------------------------------------------------


  Excited state  5 (A)                                             [converged]
  ----------------------------------------------------------------------------
  Term symbol:  6 (-) A                                     R^2 =  2.57257e-13

  Total energy:                                           -410.5095411398 a.u.
  Excitation energy:                                             706.038548 eV

  Osc. strength:                                                      0.013351
  Trans. dip. moment [a.u.]:           [   0.019547,    0.002042,    0.019636]
  <i|r^2|0> [a.u.]:                    [  -0.045533,    0.004071,   -0.034609]

  V1^2 = 0.8508, V2^2 = 0.1492

  Important amplitudes:
     core i     occ j      vir a      vir b          v   
    ------------------------------------------------------
     1 (A) A              23 (A) A                -0.5849
     1 (A) B              23 (A) B                -0.5849
    ------------------------------------------------------
  ----------------------------------------------------------------------------


  Excited state  6 (A)                                             [converged]
  ----------------------------------------------------------------------------
  Term symbol:  7 (-) A                                     R^2 =  4.28421e-13

  Total energy:                                           -410.5070146181 a.u.
  Excitation energy:                                             706.107299 eV

  Osc. strength:                                                      0.004637
  Trans. dip. moment [a.u.]:           [  -0.012243,    0.008687,    0.006536]
  <i|r^2|0> [a.u.]:                    [   0.000506,    0.028713,    0.016066]

  V1^2 = 0.8491, V2^2 = 0.1509

  Important amplitudes:
     core i     occ j      vir a      vir b          v   
    ------------------------------------------------------
     1 (A) A              22 (A) A                 0.6322
     1 (A) B              22 (A) B                 0.6322
    ------------------------------------------------------
  ----------------------------------------------------------------------------


  Excited state  7 (A)                                             [converged]
  ----------------------------------------------------------------------------
  Term symbol:  8 (-) A                                     R^2 =  8.20781e-13

  Total energy:                                           -410.4716782826 a.u.
  Excitation energy:                                             707.068849 eV

  Osc. strength:                                                      0.000000
  Trans. dip. moment [a.u.]:           [  -0.000000,    0.000000,    0.000000]
  <i|r^2|0> [a.u.]:                    [  -0.000000,    0.000000,   -0.000000]

  V1^2 = 0.8362, V2^2 = 0.1638

  Important amplitudes:
     core i     occ j      vir a      vir b          v   
    ------------------------------------------------------
     1 (A) B              25 (A) B                 0.4744
     1 (A) A              25 (A) A                -0.4744
    ------------------------------------------------------
  ----------------------------------------------------------------------------


  Excited state  8 (A)                                             [converged]
  ----------------------------------------------------------------------------
  Term symbol:  9 (-) A                                     R^2 =  2.73200e-13

  Total energy:                                           -410.4657812784 a.u.
  Excitation energy:                                             707.229315 eV

  Osc. strength:                                                      0.000454
  Trans. dip. moment [a.u.]:           [  -0.001946,    0.003505,    0.003180]
  <i|r^2|0> [a.u.]:                    [  -0.042383,    0.040664,   -0.047186]

  V1^2 = 0.8359, V2^2 = 0.1641

  Important amplitudes:
     core i     occ j      vir a      vir b          v   
    ------------------------------------------------------
     1 (A) A              25 (A) A                 0.4948
     1 (A) B              25 (A) B                 0.4948
    ------------------------------------------------------
  ----------------------------------------------------------------------------


  Excited state  9 (A)                                             [converged]
  ----------------------------------------------------------------------------
  Term symbol:  10 (-) A                                    R^2 =  9.80118e-13

  Total energy:                                           -410.2668180196 a.u.
  Excitation energy:                                             712.643380 eV

  Osc. strength:                                                      0.000000
  Trans. dip. moment [a.u.]:           [  -0.000000,   -0.000000,    0.000000]
  <i|r^2|0> [a.u.]:                    [   0.000000,   -0.000000,   -0.000000]

  V1^2 = 0.8694, V2^2 = 0.1306

  Important amplitudes:
     core i     occ j      vir a      vir b          v   
    ------------------------------------------------------
     1 (A) B              29 (A) B                 0.4566
     1 (A) A              29 (A) A                -0.4566
    ------------------------------------------------------
  ----------------------------------------------------------------------------


  Excited state 10 (A)                                             [converged]
  ----------------------------------------------------------------------------
  Term symbol:  11 (-) A                                    R^2 =  1.06046e-12

  Total energy:                                           -410.2584193241 a.u.
  Excitation energy:                                             712.871921 eV

  Osc. strength:                                                      0.004445
  Trans. dip. moment [a.u.]:           [  -0.005904,   -0.012962,    0.007184]
  <i|r^2|0> [a.u.]:                    [   0.009365,   -0.025037,   -0.009810]

  V1^2 = 0.8662, V2^2 = 0.1338

  Important amplitudes:
     core i     occ j      vir a      vir b          v   
    ------------------------------------------------------
     1 (A) A              29 (A) A                 0.4645
     1 (A) B              29 (A) B                 0.4645
    ------------------------------------------------------
  ----------------------------------------------------------------------------


  Excited state 11 (A)                                             [converged]
  ----------------------------------------------------------------------------
  Term symbol:  12 (-) A                                    R^2 =  5.60962e-13

  Total energy:                                           -410.2280226467 a.u.
  Excitation energy:                                             713.699056 eV

  Osc. strength:                                                      0.000000
  Trans. dip. moment [a.u.]:           [  -0.000000,    0.000000,   -0.000000]
  <i|r^2|0> [a.u.]:                    [   0.000000,   -0.000000,   -0.000000]

  V1^2 = 0.8545, V2^2 = 0.1455

  Important amplitudes:
     core i     occ j      vir a      vir b          v   
    ------------------------------------------------------
     1 (A) B              28 (A) B                 0.6327
     1 (A) A              28 (A) A                -0.6327
    ------------------------------------------------------
  ----------------------------------------------------------------------------


  Excited state 12 (A)                                             [converged]
  ----------------------------------------------------------------------------
  Term symbol:  13 (-) A                                    R^2 =  9.28499e-13

  Total energy:                                           -410.2269981833 a.u.
  Excitation energy:                                             713.726933 eV

  Osc. strength:                                                      0.000000
  Trans. dip. moment [a.u.]:           [   0.000000,   -0.000000,   -0.000000]
  <i|r^2|0> [a.u.]:                    [  -0.000000,    0.000000,   -0.000000]

  V1^2 = 0.8532, V2^2 = 0.1468

  Important amplitudes:
     core i     occ j      vir a      vir b          v   
    ------------------------------------------------------
     1 (A) B              26 (A) B                 0.5083
     1 (A) A              26 (A) A                -0.5083
    ------------------------------------------------------
  ----------------------------------------------------------------------------


  Excited state 13 (A)                                             [converged]
  ----------------------------------------------------------------------------
  Term symbol:  14 (-) A                                    R^2 =  4.90046e-13

  Total energy:                                           -410.2239678802 a.u.
  Excitation energy:                                             713.809392 eV

  Osc. strength:                                                      0.000006
  Trans. dip. moment [a.u.]:           [   0.000205,   -0.000473,    0.000263]
  <i|r^2|0> [a.u.]:                    [  -0.034556,    0.008110,    0.036029]

  V1^2 = 0.8535, V2^2 = 0.1465

  Important amplitudes:
     core i     occ j      vir a      vir b          v   
    ------------------------------------------------------
     1 (A) A              28 (A) A                -0.6307
     1 (A) B              28 (A) B                -0.6307
    ------------------------------------------------------
  ----------------------------------------------------------------------------


  Excited state 14 (A)                                             [converged]
  ----------------------------------------------------------------------------
  Term symbol:  15 (-) A                                    R^2 =  1.01364e-12

  Total energy:                                           -410.2236209633 a.u.
  Excitation energy:                                             713.818832 eV

  Osc. strength:                                                      0.000062
  Trans. dip. moment [a.u.]:           [   0.001175,    0.000028,   -0.001465]
  <i|r^2|0> [a.u.]:                    [  -0.028305,    0.014648,   -0.038675]

  V1^2 = 0.8526, V2^2 = 0.1474

  Important amplitudes:
     core i     occ j      vir a      vir b          v   
    ------------------------------------------------------
     1 (A) A              26 (A) A                 0.5082
     1 (A) B              26 (A) B                 0.5082
    ------------------------------------------------------
  ----------------------------------------------------------------------------


  Excited state 15 (A)                                             [converged]
  ----------------------------------------------------------------------------
  Term symbol:  16 (-) A                                    R^2 =  1.48498e-12

  Total energy:                                           -410.1941825565 a.u.
  Excitation energy:                                             714.619892 eV

  Osc. strength:                                                      0.000000
  Trans. dip. moment [a.u.]:           [  -0.000000,   -0.000000,    0.000000]
  <i|r^2|0> [a.u.]:                    [  -0.000000,   -0.000000,   -0.000000]

  V1^2 = 0.8411, V2^2 = 0.1589

  Important amplitudes:
     core i     occ j      vir a      vir b          v   
    ------------------------------------------------------
     1 (A) B              29 (A) B                 0.4383
     1 (A) A              29 (A) A                -0.4383
    ------------------------------------------------------
  ----------------------------------------------------------------------------


  Excited state 16 (A)                                             [converged]
  ----------------------------------------------------------------------------
  Term symbol:  17 (-) A                                    R^2 =  1.50831e-12

  Total energy:                                           -410.1925282397 a.u.
  Excitation energy:                                             714.664908 eV

  Osc. strength:                                                      0.001354
  Trans. dip. moment [a.u.]:           [  -0.003800,   -0.005491,    0.005724]
  <i|r^2|0> [a.u.]:                    [  -0.016435,   -0.073230,   -0.022900]

  V1^2 = 0.8409, V2^2 = 0.1591

  Important amplitudes:
     core i     occ j      vir a      vir b          v   
    ------------------------------------------------------
     1 (A) A              29 (A) A                 0.4326
     1 (A) B              29 (A) B                 0.4326
    ------------------------------------------------------
  ----------------------------------------------------------------------------


  Excited state 17 (A)                                         [not converged]
  ----------------------------------------------------------------------------
  Term symbol:  18 (-) A                                    R^2 =  1.69970e-06

  Total energy:                                           -409.6998033027 a.u.
  Excitation energy:                                             728.072636 eV


  V1^2 = 0.8574, V2^2 = 0.1426

  Important amplitudes:
     core i     occ j      vir a      vir b          v   
    ------------------------------------------------------
     1 (A) A              31 (A) A                -0.5503
     1 (A) B              31 (A) B                 0.5503
    ------------------------------------------------------
  ----------------------------------------------------------------------------


  Excited state 18 (A)                                         [not converged]
  ----------------------------------------------------------------------------
  Term symbol:  19 (-) A                                    R^2 =  1.20739e-06

  Total energy:                                           -409.6990380592 a.u.
  Excitation energy:                                             728.093459 eV


  V1^2 = 0.8533, V2^2 = 0.1467

  Important amplitudes:
     core i     occ j      vir a      vir b          v   
    ------------------------------------------------------
     1 (A) A              30 (A) A                 0.5613
     1 (A) B              30 (A) B                -0.5613
    ------------------------------------------------------
  ----------------------------------------------------------------------------


  Excited state 19 (A)                                             [converged]
  ----------------------------------------------------------------------------
  Term symbol:  20 (-) A                                    R^2 =  2.86961e-07

  Total energy:                                           -409.6905076763 a.u.
  Excitation energy:                                             728.325582 eV

  Osc. strength:                                                      0.000000
  Trans. dip. moment [a.u.]:           [   0.000000,   -0.000000,   -0.000000]
  <i|r^2|0> [a.u.]:                    [   0.000000,   -0.000000,    0.000000]

  V1^2 = 0.8851, V2^2 = 0.1149

  Important amplitudes:
     core i     occ j      vir a      vir b          v   
    ------------------------------------------------------
     1 (A) B              32 (A) B                -0.5086
     1 (A) A              32 (A) A                 0.5086
    ------------------------------------------------------
  ----------------------------------------------------------------------------


  Excited state 20 (A)                                         [not converged]
  ----------------------------------------------------------------------------
  Term symbol:  21 (-) A                                    R^2 =  1.96758e-05

  Total energy:                                           -409.6763048750 a.u.
  Excitation energy:                                             728.712060 eV


  V1^2 = 0.0000, V2^2 = 1.0000

  Important amplitudes:
     core i     occ j      vir a      vir b          v   
    ------------------------------------------------------
     1 (A) B   21 (A) A   25 (A) A   24 (A) B      0.1466
     1 (A) A   21 (A) B   24 (A) A   25 (A) B     -0.1466
    ------------------------------------------------------
  ----------------------------------------------------------------------------


  Excited state 21 (A)                                         [not converged]
  ----------------------------------------------------------------------------
  Term symbol:  22 (-) A                                    R^2 =  1.68324e-05

  Total energy:                                           -409.6740704303 a.u.
  Excitation energy:                                             728.772863 eV


  V1^2 = 0.0000, V2^2 = 1.0000

  Important amplitudes:
     core i     occ j      vir a      vir b          v   
    ------------------------------------------------------
     1 (A) B   20 (A) A   25 (A) A   24 (A) B      0.1247
     1 (A) A   20 (A) B   24 (A) A   25 (A) B     -0.1247
    ------------------------------------------------------
  ----------------------------------------------------------------------------


  Excited state 22 (A)                                         [not converged]
  ----------------------------------------------------------------------------
  Term symbol:  23 (-) A                                    R^2 =  7.57935e-06

  Total energy:                                           -409.6706212687 a.u.
  Excitation energy:                                             728.866719 eV


  V1^2 = 0.0004, V2^2 = 0.9996

  Important amplitudes:
     core i     occ j      vir a      vir b          v   
    ------------------------------------------------------
     1 (A) B   21 (A) A   25 (A) A   25 (A) B     -0.1901
     1 (A) A   21 (A) B   25 (A) A   25 (A) B     -0.1901
    ------------------------------------------------------
  ----------------------------------------------------------------------------


  Excited state 23 (A)                                         [not converged]
  ----------------------------------------------------------------------------
  Term symbol:  24 (-) A                                    R^2 =  5.16039e-06

  Total energy:                                           -409.6695559378 a.u.
  Excitation energy:                                             728.895708 eV


  V1^2 = 0.8171, V2^2 = 0.1829

  Important amplitudes:
     core i     occ j      vir a      vir b          v   
    ------------------------------------------------------
     1 (A) B              31 (A) B                 0.6132
     1 (A) A              31 (A) A                 0.6132
    ------------------------------------------------------
  ----------------------------------------------------------------------------


  Excited state 24 (A)                                         [not converged]
  ----------------------------------------------------------------------------
  Term symbol:  25 (-) A                                    R^2 =  1.47942e-06

  Total energy:                                           -409.6691458993 a.u.
  Excitation energy:                                             728.906866 eV


  V1^2 = 0.8432, V2^2 = 0.1568

  Important amplitudes:
     core i     occ j      vir a      vir b          v   
    ------------------------------------------------------
     1 (A) A              30 (A) A                 0.6206
     1 (A) B              30 (A) B                 0.6206
    ------------------------------------------------------
  ----------------------------------------------------------------------------


  Excited state 25 (A)                                         [not converged]
  ----------------------------------------------------------------------------
  Term symbol:  26 (-) A                                    R^2 =  3.58828e-05

  Total energy:                                           -409.6681566104 a.u.
  Excitation energy:                                             728.933786 eV


  V1^2 = 0.0258, V2^2 = 0.9742

  Important amplitudes:
     core i     occ j      vir a      vir b          v   
    ------------------------------------------------------
     1 (A) A   21 (A) B   25 (A) A   25 (A) B      0.2144
     1 (A) B   21 (A) A   25 (A) A   25 (A) B     -0.2144
    ------------------------------------------------------
  ----------------------------------------------------------------------------


  Excited state 26 (A)                                         [not converged]
  ----------------------------------------------------------------------------
  Term symbol:  27 (-) A                                    R^2 =  5.66047e-06

  Total energy:                                           -409.6595042487 a.u.
  Excitation energy:                                             729.169229 eV


  V1^2 = 0.0026, V2^2 = 0.9974

  Important amplitudes:
     core i     occ j      vir a      vir b          v   
    ------------------------------------------------------
     1 (A) B   20 (A) A   25 (A) A   25 (A) B      0.1698
     1 (A) A   20 (A) B   25 (A) A   25 (A) B      0.1698
    ------------------------------------------------------
  ----------------------------------------------------------------------------


  Excited state 27 (A)                                         [not converged]
  ----------------------------------------------------------------------------
  Term symbol:  28 (-) A                                    R^2 =  7.08233e-05

  Total energy:                                           -409.6557979031 a.u.
  Excitation energy:                                             729.270083 eV


  V1^2 = 0.5387, V2^2 = 0.4613

  Important amplitudes:
     core i     occ j      vir a      vir b          v   
    ------------------------------------------------------
     1 (A) A              32 (A) A                 0.4041
     1 (A) B              32 (A) B                 0.4041
    ------------------------------------------------------
  ----------------------------------------------------------------------------


  Excited state 28 (A)                                         [not converged]
  ----------------------------------------------------------------------------
  Term symbol:  29 (-) A                                    R^2 =  1.36026e-04

  Total energy:                                           -409.6521964452 a.u.
  Excitation energy:                                             729.368084 eV


  V1^2 = 0.3498, V2^2 = 0.6502

  Important amplitudes:
     core i     occ j      vir a      vir b          v   
    ------------------------------------------------------
     1 (A) B              32 (A) B                -0.3384
     1 (A) A              32 (A) A                -0.3384
    ------------------------------------------------------
  ----------------------------------------------------------------------------


  Excited state 29 (A)                                         [not converged]
  ----------------------------------------------------------------------------
  Term symbol:  30 (-) A                                    R^2 =  1.11468e-04

  Total energy:                                           -409.6513837634 a.u.
  Excitation energy:                                             729.390198 eV


  V1^2 = 0.0000, V2^2 = 1.0000

  Important amplitudes:
     core i     occ j      vir a      vir b          v   
    ------------------------------------------------------
     1 (A) B   21 (A) B   23 (A) B   25 (A) B      0.1113
     1 (A) A   21 (A) A   23 (A) A   25 (A) A      0.1113
    ------------------------------------------------------
  ----------------------------------------------------------------------------


  Excited state 30 (A)                                         [not converged]
  ----------------------------------------------------------------------------
  Term symbol:  31 (-) A                                    R^2 =  4.32921e-03

  Total energy:                                           -409.6381361425 a.u.
  Excitation energy:                                             729.750684 eV


  V1^2 = 0.0014, V2^2 = 0.9986

  Important amplitudes:
     core i     occ j      vir a      vir b          v   
    ------------------------------------------------------
     1 (A) A   20 (A) B   24 (A) A   25 (A) B     -0.1306
     1 (A) B   20 (A) A   25 (A) A   24 (A) B     -0.1300
    ------------------------------------------------------
  ----------------------------------------------------------------------------


--------------------------------------------------------------------------------
  Time of ADC calculation:  CPU 3511.97 s  wall 1358.59 s
================================================================================
 
 --------------------------------------------------------------
 
                    Orbital Energies (a.u.)
 --------------------------------------------------------------
 
 Alpha MOs
 -- Occupied --
-26.374 -26.374 -26.374 -26.374 -11.605  -1.813  -1.679  -1.679
 -1.679  -1.005  -0.890  -0.890  -0.890  -0.759  -0.759  -0.705
 -0.705  -0.705  -0.673  -0.673  -0.673
 -- Virtual --
  0.438   0.438   0.438   0.442   0.676   0.676   0.676   0.689
  1.297   1.297   1.300   1.300   1.300   1.408   1.572   1.572
  1.613   1.613   1.613   1.659   1.659   1.659   1.817   1.817
  1.817   2.090   2.090   2.090   2.117   2.117   2.222   2.222
  2.222   2.310   2.310   2.310   2.389   2.389   2.389   2.585
  2.942   2.942   2.942   3.163   3.163   3.386   3.426   3.426
  3.426   4.713   4.733   4.733   4.733   6.301
 
 Beta MOs
 -- Occupied --
-26.374 -26.374 -26.374 -26.374 -11.605  -1.813  -1.679  -1.679
 -1.679  -1.005  -0.890  -0.890  -0.890  -0.759  -0.759  -0.705
 -0.705  -0.705  -0.673  -0.673  -0.673
 -- Virtual --
  0.438   0.438   0.438   0.442   0.676   0.676   0.676   0.689
  1.297   1.297   1.300   1.300   1.300   1.408   1.572   1.572
  1.613   1.613   1.613   1.659   1.659   1.659   1.817   1.817
  1.817   2.090   2.090   2.090   2.117   2.117   2.222   2.222
  2.222   2.310   2.310   2.310   2.389   2.389   2.389   2.585
  2.942   2.942   2.942   3.163   3.163   3.386   3.426   3.426
  3.426   4.713   4.733   4.733   4.733   6.301
 --------------------------------------------------------------
 
          Ground-State Mulliken Net Atomic Charges

     Atom                 Charge (a.u.)    Spin (a.u.)
  --------------------------------------------------------
      1 C                     1.312620       0.000000
      2 F                    -0.328153       0.000000
      3 F                    -0.328161       0.000000
      4 F                    -0.328155       0.000000
      5 F                    -0.328151       0.000000
  --------------------------------------------------------
  Sum of atomic charges =     0.000000
  Sum of spin   charges =     0.000000

 -----------------------------------------------------------------
                    Cartesian Multipole Moments
 -----------------------------------------------------------------
    Charge (ESU x 10^10)
                 0.0000
    Dipole Moment (Debye)
         X       0.0000      Y       0.0000      Z       0.0000
       Tot       0.0000
    Quadrupole Moments (Debye-Ang)
        XX     -24.9359     XY       0.0000     YY     -24.9360
        XZ       0.0000     YZ      -0.0001     ZZ     -24.9359
    Octopole Moments (Debye-Ang^2)
       XXX      50.8260    XXY     -58.5911    XYY      18.1836
       YYY    -175.2572    XXZ       0.0000    XYZ       0.0001
       YYZ      -0.9182    XZZ      18.1835    YZZ     -59.1082
       ZZZ       0.9178
    Hexadecapole Moments (Debye-Ang^3)
      XXXX    -146.2688   XXXY     119.4244   XXYY    -176.6376
      XYYY     127.8022   YYYY    -898.4102   XXXZ      -0.0001
      XXYZ      -0.0002   XYYZ       0.6648   YYYZ      -6.4713
      XXZZ     -38.9674   XYZZ      43.0996   YYZZ    -165.8483
      XZZZ      -0.6646   YZZZ       2.1562   ZZZZ     -77.2452
 -----------------------------------------------------------------
Archival summary:
1\1\tp-linux1\SP\HF\6-31G*\41\thomas\TueMar715:38:432017TueMar715:38:432017\0\\#,HF,6-31G*,\\0,1\C\F,1,1.30149\F,1,1.30149,2,109.471\F,1,1.30149,2,109.471,3,120,0\F,1,1.3015,2,109.471,3,-119.999,0\\HF=-435.645207\\@

 Total job time:  1370.42s(wall), 3520.86s(cpu) 
 Tue Mar  7 15:38:43 2017

        *************************************************************
        *                                                           *
        *  Thank you very much for using Q-Chem.  Have a nice day.  *
        *                                                           *
        *************************************************************


0 sent ACK to 0 
now end server 0 ... 
remove work dirs /scratch/qchem/qchem24340.0 -- /scratch/qchem/qchem24340.0
rm -rf /scratch/qchem/qchem24340.0
rm -rf /scratch/qchem/qchem24340
remove work dirs /scratch/qchem/qchem24157.0 -- /scratch/qchem/qchem24157.0
rm -rf /scratch/qchem/qchem24157.0
rm -rf /scratch/qchem/qchem24157
You are running Q-Chem version: 4.3

#
# job setting
#
local host:  tp-linux1
current dir: /home/thomas/cf4/adc_tests
input file:  cvs-adc1.inp
output file: cvs-adc1.out
nprocs     : 1
nthreads   : 4
#
# qchem installation setting
#
QC:          /mnt/software/qchem
QCAUX:       /mnt/software/qchem/qcaux
QCPROG:      /mnt/software/qchem/exe/qcprog.exe
QCPROG_S:    /mnt/software/qchem/exe/qcprog.exe_s
PARALLEL:    -DPARALLEL
QCMPI:       mpich
#
# qchem directory setting
#
qcrun:       qchem26991
QCSCRATCH:   /scratch/qchem
QCLOCALSCR:  
QCTMPDIR:    /scratch/qchem
QCFILEPREF:  /scratch/qchem/qchem26991
QCSAVEDIR:   
workdirs:    /scratch/qchem/qchem26991
workdir0:    /scratch/qchem/qchem26991
partmpdirs =  
#
# parallel setting
#
QCRSH:           ssh
QCMPI:           mpich
QCMPIRUN:        /mnt/software/qchem/bin/mpi/mpirun_qchem
QCMACHINEFILE:   /mnt/software/qchem/bin/mpi/machines
127.0.1.1 32

#
# env setting
#
exported envs:   QC QCAUX QCSCRATCH QCRUNNAME QCFILEPREF QCPROG QCPROG_S GUIFILE
You are running Q-Chem version: 4.3
Error: input file cvs-adc2.inp does not exist !
/mnt/software/qchem/bin/qchem [-save] [-par|-seq] [-nt nthreads] [-np nprocs] input output scratchDir
You are running Q-Chem version: 4.3

#
# job setting
#
local host:  tp-linux1
current dir: /home/thomas/cf4/adc_tests
input file:  cvs-adc2s.inp
output file: cvs-adc2s.out
nprocs     : 1
nthreads   : 4
#
# qchem installation setting
#
QC:          /mnt/software/qchem
QCAUX:       /mnt/software/qchem/qcaux
QCPROG:      /mnt/software/qchem/exe/qcprog.exe
QCPROG_S:    /mnt/software/qchem/exe/qcprog.exe_s
PARALLEL:    -DPARALLEL
QCMPI:       mpich
#
# qchem directory setting
#
qcrun:       qchem27197
QCSCRATCH:   /scratch/qchem
QCLOCALSCR:  
QCTMPDIR:    /scratch/qchem
QCFILEPREF:  /scratch/qchem/qchem27197
QCSAVEDIR:   
workdirs:    /scratch/qchem/qchem27197
workdir0:    /scratch/qchem/qchem27197
partmpdirs =  
#
# parallel setting
#
QCRSH:           ssh
QCMPI:           mpich
QCMPIRUN:        /mnt/software/qchem/bin/mpi/mpirun_qchem
QCMACHINEFILE:   /mnt/software/qchem/bin/mpi/machines
127.0.1.1 32

#
# env setting
#
exported envs:   QC QCAUX QCSCRATCH QCRUNNAME QCFILEPREF QCPROG QCPROG_S GUIFILE
You are running Q-Chem version: 4.3

#
# job setting
#
local host:  tp-linux1
current dir: /home/thomas/cf4/adc_tests
input file:  cvs-adc2x.inp
output file: cvs-adc2x.out
nprocs     : 1
nthreads   : 4
#
# qchem installation setting
#
QC:          /mnt/software/qchem
QCAUX:       /mnt/software/qchem/qcaux
QCPROG:      /mnt/software/qchem/exe/qcprog.exe
QCPROG_S:    /mnt/software/qchem/exe/qcprog.exe_s
PARALLEL:    -DPARALLEL
QCMPI:       mpich
#
# qchem directory setting
#
qcrun:       qchem27243
QCSCRATCH:   /scratch/qchem
QCLOCALSCR:  
QCTMPDIR:    /scratch/qchem
QCFILEPREF:  /scratch/qchem/qchem27243
QCSAVEDIR:   
workdirs:    /scratch/qchem/qchem27243
workdir0:    /scratch/qchem/qchem27243
partmpdirs =  
#
# parallel setting
#
QCRSH:           ssh
QCMPI:           mpich
QCMPIRUN:        /mnt/software/qchem/bin/mpi/mpirun_qchem
QCMACHINEFILE:   /mnt/software/qchem/bin/mpi/machines
127.0.1.1 32

#
# env setting
#
exported envs:   QC QCAUX QCSCRATCH QCRUNNAME QCFILEPREF QCPROG QCPROG_S GUIFILE
remove work dirs /scratch/qchem/qchem26991.0 -- /scratch/qchem/qchem26991.0
rm -rf /scratch/qchem/qchem26991.0
rm -rf /scratch/qchem/qchem26991
remove work dirs /scratch/qchem/qchem27197.0 -- /scratch/qchem/qchem27197.0
rm -rf /scratch/qchem/qchem27197.0
rm -rf /scratch/qchem/qchem27197
remove work dirs /scratch/qchem/qchem27243.0 -- /scratch/qchem/qchem27243.0
rm -rf /scratch/qchem/qchem27243.0
rm -rf /scratch/qchem/qchem27243
