 Entering Gaussian System, Link 0=g09
 Input=/home/thomas/cf4/DD-vMCG/dd_data/gwp19_V1_dd_data.com
 Output=/home/thomas/cf4/DD-vMCG/dd_data/gwp19_V1_dd_data.log
 Initial command:
 /mnt/software/gaussian/g09/l1.exe "/scratch/Gau-32007.inp" -scrdir="/scratch/"
 Entering Link 1 = /mnt/software/gaussian/g09/l1.exe PID=     32010.
  
 Copyright (c) 1988,1990,1992,1993,1995,1998,2003,2009,2013,
            Gaussian, Inc.  All Rights Reserved.
  
 This is part of the Gaussian(R) 09 program.  It is based on
 the Gaussian(R) 03 system (copyright 2003, Gaussian, Inc.),
 the Gaussian(R) 98 system (copyright 1998, Gaussian, Inc.),
 the Gaussian(R) 94 system (copyright 1995, Gaussian, Inc.),
 the Gaussian 92(TM) system (copyright 1992, Gaussian, Inc.),
 the Gaussian 90(TM) system (copyright 1990, Gaussian, Inc.),
 the Gaussian 88(TM) system (copyright 1988, Gaussian, Inc.),
 the Gaussian 86(TM) system (copyright 1986, Carnegie Mellon
 University), and the Gaussian 82(TM) system (copyright 1983,
 Carnegie Mellon University). Gaussian is a federally registered
 trademark of Gaussian, Inc.
  
 This software contains proprietary and confidential information,
 including trade secrets, belonging to Gaussian, Inc.
  
 This software is provided under written license and may be
 used, copied, transmitted, or stored only in accord with that
 written license.
  
 The following legend is applicable only to US Government
 contracts under FAR:
  
                    RESTRICTED RIGHTS LEGEND
  
 Use, reproduction and disclosure by the US Government is
 subject to restrictions as set forth in subparagraphs (a)
 and (c) of the Commercial Computer Software - Restricted
 Rights clause in FAR 52.227-19.
  
 Gaussian, Inc.
 340 Quinnipiac St., Bldg. 40, Wallingford CT 06492
  
  
 ---------------------------------------------------------------
 Warning -- This program may not be used in any manner that
 competes with the business of Gaussian, Inc. or will provide
 assistance to any competitor of Gaussian, Inc.  The licensee
 of this program is prohibited from giving any competitor of
 Gaussian, Inc. access to this program.  By using this program,
 the user acknowledges that Gaussian, Inc. is engaged in the
 business of creating and licensing software in the field of
 computational chemistry and represents and warrants to the
 licensee that it is not a competitor of Gaussian, Inc. and that
 it will not use this program in any manner prohibited above.
 ---------------------------------------------------------------
  

 Cite this work as:
 Gaussian 09, Revision D.01,
 M. J. Frisch, G. W. Trucks, H. B. Schlegel, G. E. Scuseria, 
 M. A. Robb, J. R. Cheeseman, G. Scalmani, V. Barone, B. Mennucci, 
 G. A. Petersson, H. Nakatsuji, M. Caricato, X. Li, H. P. Hratchian, 
 A. F. Izmaylov, J. Bloino, G. Zheng, J. L. Sonnenberg, M. Hada, 
 M. Ehara, K. Toyota, R. Fukuda, J. Hasegawa, M. Ishida, T. Nakajima, 
 Y. Honda, O. Kitao, H. Nakai, T. Vreven, J. A. Montgomery, Jr., 
 J. E. Peralta, F. Ogliaro, M. Bearpark, J. J. Heyd, E. Brothers, 
 K. N. Kudin, V. N. Staroverov, T. Keith, R. Kobayashi, J. Normand, 
 K. Raghavachari, A. Rendell, J. C. Burant, S. S. Iyengar, J. Tomasi, 
 M. Cossi, N. Rega, J. M. Millam, M. Klene, J. E. Knox, J. B. Cross, 
 V. Bakken, C. Adamo, J. Jaramillo, R. Gomperts, R. E. Stratmann, 
 O. Yazyev, A. J. Austin, R. Cammi, C. Pomelli, J. W. Ochterski, 
 R. L. Martin, K. Morokuma, V. G. Zakrzewski, G. A. Voth, 
 P. Salvador, J. J. Dannenberg, S. Dapprich, A. D. Daniels, 
 O. Farkas, J. B. Foresman, J. V. Ortiz, J. Cioslowski, 
 and D. J. Fox, Gaussian, Inc., Wallingford CT, 2013.
 
 ******************************************
 Gaussian 09:  ES64L-G09RevD.01 24-Apr-2013
                 4-Mar-2017 
 ******************************************
 %mem=5000MB
 %Nprocshared=6
 Will use up to    6 processors via shared memory.
 %chk=gwp19_V1_dd_data.chk
 ------------------------------------------
 #P UHF/6-31g* IOP(7/33=1) IOP(7/8=11) Freq
 ------------------------------------------
 1/10=4,30=1,38=1/1,3;
 2/12=2,17=6,18=5,40=1/2;
 3/5=1,6=6,7=1,11=2,16=1,25=1,30=1,71=2,116=2,140=1/1,2,3;
 4//1;
 5/5=2,38=5,98=1/2;
 8/6=4,10=90,11=11/1;
 10/13=10,15=4/2;
 11/6=3,8=1,9=11,15=111,16=1/1,2,10;
 10/6=1/2;
 6/7=2,8=2,9=2,10=2,18=1,28=1/1;
 7/8=11,10=1,25=1,33=1/1,2,3,16;
 1/10=4,30=1/3;
 99//99;
 Leave Link    1 at Sat Mar  4 13:42:26 2017, MaxMem=   655360000 cpu:         0.2
 (Enter /mnt/software/gaussian/g09/l101.exe)
 -----------------
 Distorted Ethanol
 -----------------
 Symbolic Z-matrix:
 Charge =  1 Multiplicity = 2
 6                    -0.66933   5.61656  -0.84381 
 9                    -0.47797   4.48984  -0.18416 
 9                    -0.04126   6.52271  -0.40145 
 9                    -2.34402  -9.03275   2.94259 
 9                    -0.78953   5.35246  -2.01125 
 
 NAtoms=      5 NQM=        5 NQMF=       0 NMMI=      0 NMMIF=      0
                NMic=       0 NMicF=      0.
                    Isotopes and Nuclear Properties:
 (Nuclear quadrupole moments (NQMom) in fm**2, nuclear magnetic moments (NMagM)
  in nuclear magnetons)

  Atom         1           2           3           4           5
 IAtWgt=          12          19          19          19          19
 AtmWgt=  12.0000000  18.9984033  18.9984033  18.9984033  18.9984033
 NucSpn=           0           1           1           1           1
 AtZEff=   0.0000000   0.0000000   0.0000000   0.0000000   0.0000000
 NQMom=    0.0000000   0.0000000   0.0000000   0.0000000   0.0000000
 NMagM=    0.0000000   2.6288670   2.6288670   2.6288670   2.6288670
 AtZNuc=   6.0000000   9.0000000   9.0000000   9.0000000   9.0000000
 Leave Link  101 at Sat Mar  4 13:42:27 2017, MaxMem=   655360000 cpu:         0.4
 (Enter /mnt/software/gaussian/g09/l103.exe)

 GradGradGradGradGradGradGradGradGradGradGradGradGradGradGradGradGradGrad
 Berny optimization.
 Initialization pass.
 Trust Radius=3.00D-01 FncErr=1.00D-07 GrdErr=1.00D-07
 Number of steps in this run=      2 maximum allowed number of steps=      2.
 GradGradGradGradGradGradGradGradGradGradGradGradGradGradGradGradGradGrad

 Leave Link  103 at Sat Mar  4 13:42:27 2017, MaxMem=   655360000 cpu:         0.1
 (Enter /mnt/software/gaussian/g09/l202.exe)
                          Input orientation:                          
 ---------------------------------------------------------------------
 Center     Atomic      Atomic             Coordinates (Angstroms)
 Number     Number       Type             X           Y           Z
 ---------------------------------------------------------------------
      1          6           0       -0.669327    5.616563   -0.843813
      2          9           0       -0.477965    4.489836   -0.184164
      3          9           0       -0.041261    6.522709   -0.401451
      4          9           0       -2.344015   -9.032749    2.942594
      5          9           0       -0.789527    5.352460   -2.011245
 ---------------------------------------------------------------------
                    Distance matrix (angstroms):
                    1          2          3          4          5
     1  C    0.000000
     2  F    1.319572   0.000000
     3  F    1.187961   2.090573   0.000000
     4  F   15.223134  14.004252  16.076616   0.000000
     5  F    1.202953   2.044362   2.126222  15.293502   0.000000
 Stoichiometry    CF4(1+,2)
 Framework group  C1[X(CF4)]
 Deg. of freedom     9
 Full point group                 C1      NOp   1
 Largest Abelian subgroup         C1      NOp   1
 Largest concise Abelian subgroup C1      NOp   1
                         Standard orientation:                         
 ---------------------------------------------------------------------
 Center     Atomic      Atomic             Coordinates (Angstroms)
 Number     Number       Type             X           Y           Z
 ---------------------------------------------------------------------
      1          6           0        3.339397    0.019207    0.211116
      2          9           0        2.115771   -0.425894   -0.003115
      3          9           0        4.175965   -0.772812   -0.078904
      4          9           0      -11.882193   -0.006295   -0.004175
      5          9           0        3.364192    1.192196   -0.054550
 ---------------------------------------------------------------------
 Rotational constants (GHZ):     11.8882869      0.1465647      0.1448387
 Leave Link  202 at Sat Mar  4 13:42:27 2017, MaxMem=   655360000 cpu:         0.0
 (Enter /mnt/software/gaussian/g09/l301.exe)
 Standard basis: 6-31G(d) (6D, 7F)
 Ernie: Thresh=  0.10000D-02 Tol=  0.10000D-05 Strict=F.
 There are    75 symmetry adapted cartesian basis functions of A   symmetry.
 There are    75 symmetry adapted basis functions of A   symmetry.
    75 basis functions,   140 primitive gaussians,    75 cartesian basis functions
    21 alpha electrons       20 beta electrons
       nuclear repulsion energy       141.4999281928 Hartrees.
 IExCor=    0 DFT=F Ex=HF Corr=None ExCW=0 ScaHFX=  1.000000
 ScaDFX=  1.000000  1.000000  1.000000  1.000000 ScalE2=  1.000000  1.000000
 IRadAn=      0 IRanWt=     -1 IRanGd=            0 ICorTp=0 IEmpDi=  4
 NAtoms=    5 NActive=    5 NUniq=    5 SFac= 1.00D+00 NAtFMM=   60 NAOKFM=F Big=F
 Integral buffers will be    131072 words long.
 Raffenetti 2 integral format.
 Two-electron integral symmetry is turned on.
 Leave Link  301 at Sat Mar  4 13:42:27 2017, MaxMem=   655360000 cpu:         0.2
 (Enter /mnt/software/gaussian/g09/l302.exe)
 NPDir=0 NMtPBC=     1 NCelOv=     1 NCel=       1 NClECP=     1 NCelD=      1
         NCelK=      1 NCelE2=     1 NClLst=     1 CellRange=     0.0.
 One-electron integrals computed using PRISM.
 NBasis=    75 RedAO= T EigKep=  3.52D-03  NBF=    75
 NBsUse=    75 1.00D-06 EigRej= -1.00D+00 NBFU=    75
 Leave Link  302 at Sat Mar  4 13:42:27 2017, MaxMem=   655360000 cpu:         0.8
 (Enter /mnt/software/gaussian/g09/l303.exe)
 DipDrv:  MaxL=1.
 Leave Link  303 at Sat Mar  4 13:42:27 2017, MaxMem=   655360000 cpu:         0.1
 (Enter /mnt/software/gaussian/g09/l401.exe)
 ExpMin= 1.69D-01 ExpMax= 7.00D+03 ExpMxC= 1.05D+03 IAcc=1 IRadAn=         1 AccDes= 0.00D+00
 Harris functional with IExCor=  205 and IRadAn=       1 diagonalized for initial guess.
 HarFok:  IExCor=  205 AccDes= 0.00D+00 IRadAn=         1 IDoV= 1 UseB2=F ITyADJ=14
 ICtDFT=  3500011 ScaDFX=  1.000000  1.000000  1.000000  1.000000
 FoFCou: FMM=F IPFlag=           0 FMFlag=      100000 FMFlg1=           0
         NFxFlg=           0 DoJE=T BraDBF=F KetDBF=T FulRan=T
         wScrn=  0.000000 ICntrl=     500 IOpCl=  0 I1Cent=   200000004 NGrid=           0
         NMat0=    1 NMatS0=      1 NMatT0=    0 NMatD0=    1 NMtDS0=    0 NMtDT0=    0
 Petite list used in FoFCou.
 Harris En= -435.007620541069    
 JPrj=0 DoOrth=F DoCkMO=F.
 Initial guess <Sx>= 0.0000 <Sy>= 0.0000 <Sz>= 0.5000 <S**2>= 0.7500 S= 0.5000
 Leave Link  401 at Sat Mar  4 13:42:27 2017, MaxMem=   655360000 cpu:         0.7
 (Enter /mnt/software/gaussian/g09/l502.exe)
 UHF open shell SCF:
 Using DIIS extrapolation, IDIIS=  1040.
 Integral symmetry usage will be decided dynamically.
 Keep R1 and R2 ints in memory in canonical form, NReq=8999643.
 IVT=       36430 IEndB=       36430 NGot=   655360000 MDV=   647198221
 LenX=   647198221 LenY=   647192155
 Requested convergence on RMS density matrix=1.00D-08 within 128 cycles.
 Requested convergence on MAX density matrix=1.00D-06.
 Requested convergence on             energy=1.00D-06.
 No special actions if energy rises.
 FoFCou: FMM=F IPFlag=           0 FMFlag=           0 FMFlg1=           0
         NFxFlg=           0 DoJE=F BraDBF=F KetDBF=F FulRan=T
         wScrn=  0.000000 ICntrl=     600 IOpCl=  0 I1Cent=           0 NGrid=           0
         NMat0=    1 NMatS0=   2850 NMatT0=    0 NMatD0=    1 NMtDS0=    0 NMtDT0=    0
 Symmetry not used in FoFCou.

 Cycle   1  Pass 1  IDiag  1:
 E= -435.040677779355    
 DIIS: error= 7.71D-02 at cycle   1 NSaved=   1.
 NSaved= 1 IEnMin= 1 EnMin= -435.040677779355     IErMin= 1 ErrMin= 7.71D-02
 ErrMax= 7.71D-02  0.00D+00 EMaxC= 1.00D-01 BMatC= 1.01D+00 BMatP= 1.01D+00
 IDIUse=3 WtCom= 2.29D-01 WtEn= 7.71D-01
 Coeff-Com:  0.100D+01
 Coeff-En:   0.100D+01
 Coeff:      0.100D+01
 Gap=     0.506 Goal=   None    Shift=    0.000
 Gap=     0.788 Goal=   None    Shift=    0.000
 GapD=    0.506 DampG=2.000 DampE=0.500 DampFc=1.0000 IDamp=-1.
 RMSDP=3.89D-03 MaxDP=6.15D-02              OVMax= 6.31D-02

 Cycle   2  Pass 1  IDiag  1:
 E= -435.109646117276     Delta-E=       -0.068968337921 Rises=F Damp=F
 DIIS: error= 1.59D-02 at cycle   2 NSaved=   2.
 NSaved= 2 IEnMin= 2 EnMin= -435.109646117276     IErMin= 2 ErrMin= 1.59D-02
 ErrMax= 1.59D-02  0.00D+00 EMaxC= 1.00D-01 BMatC= 6.52D-02 BMatP= 1.01D+00
 IDIUse=3 WtCom= 8.41D-01 WtEn= 1.59D-01
 Coeff-Com:  0.933D-01 0.907D+00
 Coeff-En:   0.000D+00 0.100D+01
 Coeff:      0.784D-01 0.922D+00
 Gap=     0.478 Goal=   None    Shift=    0.000
 Gap=     0.431 Goal=   None    Shift=    0.000
 RMSDP=1.43D-03 MaxDP=2.44D-02 DE=-6.90D-02 OVMax= 4.36D-02

 Cycle   3  Pass 1  IDiag  1:
 E= -435.119092756831     Delta-E=       -0.009446639555 Rises=F Damp=F
 DIIS: error= 5.59D-03 at cycle   3 NSaved=   3.
 NSaved= 3 IEnMin= 3 EnMin= -435.119092756831     IErMin= 3 ErrMin= 5.59D-03
 ErrMax= 5.59D-03  0.00D+00 EMaxC= 1.00D-01 BMatC= 1.95D-02 BMatP= 6.52D-02
 IDIUse=3 WtCom= 9.44D-01 WtEn= 5.59D-02
 Coeff-Com: -0.246D-01 0.330D+00 0.695D+00
 Coeff-En:   0.000D+00 0.000D+00 0.100D+01
 Coeff:     -0.232D-01 0.312D+00 0.712D+00
 Gap=     0.469 Goal=   None    Shift=    0.000
 Gap=     0.421 Goal=   None    Shift=    0.000
 RMSDP=4.67D-04 MaxDP=1.16D-02 DE=-9.45D-03 OVMax= 1.15D-02

 Cycle   4  Pass 1  IDiag  1:
 E= -435.122123040229     Delta-E=       -0.003030283398 Rises=F Damp=F
 DIIS: error= 1.23D-03 at cycle   4 NSaved=   4.
 NSaved= 4 IEnMin= 4 EnMin= -435.122123040229     IErMin= 4 ErrMin= 1.23D-03
 ErrMax= 1.23D-03  0.00D+00 EMaxC= 1.00D-01 BMatC= 3.48D-04 BMatP= 1.95D-02
 IDIUse=3 WtCom= 9.88D-01 WtEn= 1.23D-02
 Coeff-Com: -0.367D-02-0.602D-01-0.554D-01 0.112D+01
 Coeff-En:   0.000D+00 0.000D+00 0.000D+00 0.100D+01
 Coeff:     -0.363D-02-0.595D-01-0.547D-01 0.112D+01
 Gap=     0.469 Goal=   None    Shift=    0.000
 Gap=     0.419 Goal=   None    Shift=    0.000
 RMSDP=1.45D-04 MaxDP=2.03D-03 DE=-3.03D-03 OVMax= 3.80D-03

 Cycle   5  Pass 1  IDiag  1:
 E= -435.122274682214     Delta-E=       -0.000151641985 Rises=F Damp=F
 DIIS: error= 4.64D-04 at cycle   5 NSaved=   5.
 NSaved= 5 IEnMin= 5 EnMin= -435.122274682214     IErMin= 5 ErrMin= 4.64D-04
 ErrMax= 4.64D-04  0.00D+00 EMaxC= 1.00D-01 BMatC= 4.11D-05 BMatP= 3.48D-04
 IDIUse=3 WtCom= 9.95D-01 WtEn= 4.64D-03
 Coeff-Com:  0.342D-02-0.296D-01-0.703D-01-0.710D-01 0.117D+01
 Coeff-En:   0.000D+00 0.000D+00 0.000D+00 0.000D+00 0.100D+01
 Coeff:      0.341D-02-0.295D-01-0.700D-01-0.707D-01 0.117D+01
 Gap=     0.471 Goal=   None    Shift=    0.000
 Gap=     0.420 Goal=   None    Shift=    0.000
 RMSDP=5.88D-05 MaxDP=1.04D-03 DE=-1.52D-04 OVMax= 1.84D-03

 Cycle   6  Pass 1  IDiag  1:
 E= -435.122296288963     Delta-E=       -0.000021606749 Rises=F Damp=F
 DIIS: error= 1.16D-04 at cycle   6 NSaved=   6.
 NSaved= 6 IEnMin= 6 EnMin= -435.122296288963     IErMin= 6 ErrMin= 1.16D-04
 ErrMax= 1.16D-04  0.00D+00 EMaxC= 1.00D-01 BMatC= 3.69D-06 BMatP= 4.11D-05
 IDIUse=3 WtCom= 9.99D-01 WtEn= 1.16D-03
 Coeff-Com:  0.479D-03 0.970D-03-0.153D-02-0.752D-01 0.586D-01 0.102D+01
 Coeff-En:   0.000D+00 0.000D+00 0.000D+00 0.000D+00 0.000D+00 0.100D+01
 Coeff:      0.478D-03 0.969D-03-0.153D-02-0.751D-01 0.585D-01 0.102D+01
 Gap=     0.471 Goal=   None    Shift=    0.000
 Gap=     0.420 Goal=   None    Shift=    0.000
 RMSDP=1.51D-05 MaxDP=3.34D-04 DE=-2.16D-05 OVMax= 5.43D-04

 Cycle   7  Pass 1  IDiag  1:
 E= -435.122297761155     Delta-E=       -0.000001472192 Rises=F Damp=F
 DIIS: error= 3.80D-05 at cycle   7 NSaved=   7.
 NSaved= 7 IEnMin= 7 EnMin= -435.122297761155     IErMin= 7 ErrMin= 3.80D-05
 ErrMax= 3.80D-05  0.00D+00 EMaxC= 1.00D-01 BMatC= 6.79D-07 BMatP= 3.69D-06
 IDIUse=1 WtCom= 1.00D+00 WtEn= 0.00D+00
 Coeff-Com: -0.463D-03 0.517D-02 0.115D-01-0.289D-02-0.178D+00 0.244D+00
 Coeff-Com:  0.921D+00
 Coeff:     -0.463D-03 0.517D-02 0.115D-01-0.289D-02-0.178D+00 0.244D+00
 Coeff:      0.921D+00
 Gap=     0.471 Goal=   None    Shift=    0.000
 Gap=     0.420 Goal=   None    Shift=    0.000
 RMSDP=5.64D-06 MaxDP=1.08D-04 DE=-1.47D-06 OVMax= 1.51D-04

 Cycle   8  Pass 1  IDiag  1:
 E= -435.122297979637     Delta-E=       -0.000000218482 Rises=F Damp=F
 DIIS: error= 1.12D-05 at cycle   8 NSaved=   8.
 NSaved= 8 IEnMin= 8 EnMin= -435.122297979637     IErMin= 8 ErrMin= 1.12D-05
 ErrMax= 1.12D-05  0.00D+00 EMaxC= 1.00D-01 BMatC= 3.47D-08 BMatP= 6.79D-07
 IDIUse=1 WtCom= 1.00D+00 WtEn= 0.00D+00
 Coeff-Com:  0.104D-03-0.157D-02-0.351D-02 0.632D-02 0.464D-01-0.128D+00
 Coeff-Com: -0.282D+00 0.136D+01
 Coeff:      0.104D-03-0.157D-02-0.351D-02 0.632D-02 0.464D-01-0.128D+00
 Coeff:     -0.282D+00 0.136D+01
 Gap=     0.471 Goal=   None    Shift=    0.000
 Gap=     0.420 Goal=   None    Shift=    0.000
 RMSDP=2.19D-06 MaxDP=4.20D-05 DE=-2.18D-07 OVMax= 8.60D-05

 Cycle   9  Pass 1  IDiag  1:
 E= -435.122298003777     Delta-E=       -0.000000024139 Rises=F Damp=F
 DIIS: error= 7.13D-06 at cycle   9 NSaved=   9.
 NSaved= 9 IEnMin= 9 EnMin= -435.122298003777     IErMin= 9 ErrMin= 7.13D-06
 ErrMax= 7.13D-06  0.00D+00 EMaxC= 1.00D-01 BMatC= 3.76D-09 BMatP= 3.47D-08
 IDIUse=1 WtCom= 1.00D+00 WtEn= 0.00D+00
 Coeff-Com:  0.465D-04-0.574D-03-0.125D-02 0.679D-03 0.192D-01-0.301D-01
 Coeff-Com: -0.109D+00 0.104D+00 0.102D+01
 Coeff:      0.465D-04-0.574D-03-0.125D-02 0.679D-03 0.192D-01-0.301D-01
 Coeff:     -0.109D+00 0.104D+00 0.102D+01
 Gap=     0.471 Goal=   None    Shift=    0.000
 Gap=     0.420 Goal=   None    Shift=    0.000
 RMSDP=6.42D-07 MaxDP=9.71D-06 DE=-2.41D-08 OVMax= 2.41D-05

 Cycle  10  Pass 1  IDiag  1:
 E= -435.122298006438     Delta-E=       -0.000000002662 Rises=F Damp=F
 DIIS: error= 7.13D-06 at cycle  10 NSaved=  10.
 NSaved=10 IEnMin=10 EnMin= -435.122298006438     IErMin=10 ErrMin= 7.13D-06
 ErrMax= 7.13D-06  0.00D+00 EMaxC= 1.00D-01 BMatC= 8.51D-10 BMatP= 3.76D-09
 IDIUse=1 WtCom= 1.00D+00 WtEn= 0.00D+00
 Coeff-Com: -0.165D-04 0.240D-03 0.549D-03-0.821D-03-0.752D-02 0.183D-01
 Coeff-Com:  0.420D-01-0.150D+00-0.175D+00 0.127D+01
 Coeff:     -0.165D-04 0.240D-03 0.549D-03-0.821D-03-0.752D-02 0.183D-01
 Coeff:      0.420D-01-0.150D+00-0.175D+00 0.127D+01
 Gap=     0.471 Goal=   None    Shift=    0.000
 Gap=     0.420 Goal=   None    Shift=    0.000
 RMSDP=3.49D-07 MaxDP=9.85D-06 DE=-2.66D-09 OVMax= 2.76D-05

 Cycle  11  Pass 1  IDiag  1:
 E= -435.122298007547     Delta-E=       -0.000000001108 Rises=F Damp=F
 DIIS: error= 7.13D-06 at cycle  11 NSaved=  11.
 NSaved=11 IEnMin=11 EnMin= -435.122298007547     IErMin=11 ErrMin= 7.13D-06
 ErrMax= 7.13D-06  0.00D+00 EMaxC= 1.00D-01 BMatC= 5.72D-10 BMatP= 8.51D-10
 IDIUse=1 WtCom= 1.00D+00 WtEn= 0.00D+00
 Coeff-Com:  0.195D-05-0.352D-04-0.819D-04 0.215D-03 0.914D-03-0.292D-02
 Coeff-Com: -0.648D-02 0.377D-01-0.147D-01-0.373D+00 0.136D+01
 Coeff:      0.195D-05-0.352D-04-0.819D-04 0.215D-03 0.914D-03-0.292D-02
 Coeff:     -0.648D-02 0.377D-01-0.147D-01-0.373D+00 0.136D+01
 Gap=     0.471 Goal=   None    Shift=    0.000
 Gap=     0.420 Goal=   None    Shift=    0.000
 RMSDP=2.69D-07 MaxDP=1.13D-05 DE=-1.11D-09 OVMax= 2.88D-05

 Cycle  12  Pass 1  IDiag  1:
 E= -435.122298008471     Delta-E=       -0.000000000924 Rises=F Damp=F
 DIIS: error= 7.13D-06 at cycle  12 NSaved=  12.
 NSaved=12 IEnMin=12 EnMin= -435.122298008471     IErMin=12 ErrMin= 7.13D-06
 ErrMax= 7.13D-06  0.00D+00 EMaxC= 1.00D-01 BMatC= 5.53D-10 BMatP= 5.72D-10
 IDIUse=1 WtCom= 1.00D+00 WtEn= 0.00D+00
 Coeff-Com:  0.133D-05-0.207D-04-0.457D-04 0.889D-04 0.589D-03-0.156D-02
 Coeff-Com: -0.364D-02 0.154D-01 0.811D-02-0.137D+00 0.205D+00 0.913D+00
 Coeff:      0.133D-05-0.207D-04-0.457D-04 0.889D-04 0.589D-03-0.156D-02
 Coeff:     -0.364D-02 0.154D-01 0.811D-02-0.137D+00 0.205D+00 0.913D+00
 Gap=     0.471 Goal=   None    Shift=    0.000
 Gap=     0.420 Goal=   None    Shift=    0.000
 RMSDP=1.82D-07 MaxDP=7.69D-06 DE=-9.24D-10 OVMax= 2.00D-05

 Cycle  13  Pass 1  IDiag  1:
 E= -435.122298009104     Delta-E=       -0.000000000634 Rises=F Damp=F
 DIIS: error= 7.13D-06 at cycle  13 NSaved=  13.
 NSaved=13 IEnMin=13 EnMin= -435.122298009104     IErMin=13 ErrMin= 7.13D-06
 ErrMax= 7.13D-06  0.00D+00 EMaxC= 1.00D-01 BMatC= 5.52D-10 BMatP= 5.53D-10
 IDIUse=1 WtCom= 1.00D+00 WtEn= 0.00D+00
 Coeff-Com: -0.800D-07 0.183D-05 0.535D-05-0.170D-04-0.485D-04 0.197D-03
 Coeff-Com:  0.396D-03-0.313D-02 0.317D-02 0.355D-01-0.174D+00 0.141D+00
 Coeff-Com:  0.997D+00
 Coeff:     -0.800D-07 0.183D-05 0.535D-05-0.170D-04-0.485D-04 0.197D-03
 Coeff:      0.396D-03-0.313D-02 0.317D-02 0.355D-01-0.174D+00 0.141D+00
 Coeff:      0.997D+00
 Gap=     0.471 Goal=   None    Shift=    0.000
 Gap=     0.420 Goal=   None    Shift=    0.000
 RMSDP=2.07D-07 MaxDP=8.71D-06 DE=-6.34D-10 OVMax= 2.28D-05

 Cycle  14  Pass 1  IDiag  1:
 E= -435.122298009824     Delta-E=       -0.000000000720 Rises=F Damp=F
 DIIS: error= 7.13D-06 at cycle  14 NSaved=  14.
 NSaved=14 IEnMin=14 EnMin= -435.122298009824     IErMin=14 ErrMin= 7.13D-06
 ErrMax= 7.13D-06  0.00D+00 EMaxC= 1.00D-01 BMatC= 5.52D-10 BMatP= 5.52D-10
 IDIUse=1 WtCom= 1.00D+00 WtEn= 0.00D+00
 Coeff-Com: -0.104D-06 0.148D-05 0.264D-05-0.375D-05-0.393D-04 0.932D-04
 Coeff-Com:  0.209D-03-0.597D-03-0.176D-02 0.409D-02 0.302D-01-0.147D+00
 Coeff-Com: -0.306D+00 0.142D+01
 Coeff:     -0.104D-06 0.148D-05 0.264D-05-0.375D-05-0.393D-04 0.932D-04
 Coeff:      0.209D-03-0.597D-03-0.176D-02 0.409D-02 0.302D-01-0.147D+00
 Coeff:     -0.306D+00 0.142D+01
 Gap=     0.471 Goal=   None    Shift=    0.000
 Gap=     0.420 Goal=   None    Shift=    0.000
 RMSDP=2.80D-07 MaxDP=1.17D-05 DE=-7.20D-10 OVMax= 3.08D-05

 Cycle  15  Pass 1  IDiag  1:
 E= -435.122298010799     Delta-E=       -0.000000000975 Rises=F Damp=F
 DIIS: error= 7.13D-06 at cycle  15 NSaved=  15.
 NSaved=15 IEnMin=15 EnMin= -435.122298010799     IErMin=15 ErrMin= 7.13D-06
 ErrMax= 7.13D-06  0.00D+00 EMaxC= 1.00D-01 BMatC= 5.52D-10 BMatP= 5.52D-10
 IDIUse=1 WtCom= 1.00D+00 WtEn= 0.00D+00
 Coeff-Com:  0.434D-06-0.672D-05-0.144D-04 0.291D-04 0.181D-03-0.523D-03
 Coeff-Com: -0.109D-02 0.514D-02 0.339D-02-0.501D-01 0.646D-01 0.402D+00
 Coeff-Com:  0.777D-01-0.542D+01 0.592D+01
 Coeff:      0.434D-06-0.672D-05-0.144D-04 0.291D-04 0.181D-03-0.523D-03
 Coeff:     -0.109D-02 0.514D-02 0.339D-02-0.501D-01 0.646D-01 0.402D+00
 Coeff:      0.777D-01-0.542D+01 0.592D+01
 Gap=     0.471 Goal=   None    Shift=    0.000
 Gap=     0.420 Goal=   None    Shift=    0.000
 RMSDP=1.38D-06 MaxDP=5.77D-05 DE=-9.75D-10 OVMax= 1.52D-04

 Cycle  16  Pass 1  IDiag  1:
 E= -435.122298015596     Delta-E=       -0.000000004797 Rises=F Damp=F
 DIIS: error= 7.13D-06 at cycle  16 NSaved=  16.
 NSaved=16 IEnMin=16 EnMin= -435.122298015596     IErMin=16 ErrMin= 7.13D-06
 ErrMax= 7.13D-06  0.00D+00 EMaxC= 1.00D-01 BMatC= 5.51D-10 BMatP= 5.52D-10
 IDIUse=1 WtCom= 1.00D+00 WtEn= 0.00D+00
 Large coefficients: NSaved= 16 BigCof=    0.00 CofMax=   10.00 Det=-6.55D-16
 Inversion failed.  Reducing to 15 matrices.
 Large coefficients: NSaved= 15 BigCof=   32.19 CofMax=   10.00 Det=-9.05D-16
 Inversion failed.  Reducing to 14 matrices.
 Large coefficients: NSaved= 14 BigCof=   30.01 CofMax=   10.00 Det=-9.95D-16
 Inversion failed.  Reducing to 13 matrices.
 Large coefficients: NSaved= 13 BigCof=   21.66 CofMax=   10.00 Det=-1.17D-15
 Inversion failed.  Reducing to 12 matrices.
 Large coefficients: NSaved= 12 BigCof=   20.83 CofMax=   10.00 Det=-1.23D-15
 Inversion failed.  Reducing to 11 matrices.
 Large coefficients: NSaved= 11 BigCof=   20.22 CofMax=   10.00 Det=-1.25D-15
 Inversion failed.  Reducing to 10 matrices.
 Large coefficients: NSaved= 10 BigCof=   20.11 CofMax=   10.00 Det=-1.31D-15
 Inversion failed.  Reducing to  9 matrices.
 Large coefficients: NSaved=  9 BigCof=   20.12 CofMax=   10.00 Det=-1.31D-15
 Inversion failed.  Reducing to  8 matrices.
 Large coefficients: NSaved=  8 BigCof=   19.95 CofMax=   10.00 Det=-1.36D-15
 Inversion failed.  Reducing to  7 matrices.
 Large coefficients: NSaved=  7 BigCof=   19.47 CofMax=   10.00 Det=-1.43D-15
 Inversion failed.  Reducing to  6 matrices.
 Large coefficients: NSaved=  6 BigCof=   18.69 CofMax=   10.00 Det=-1.54D-15
 Inversion failed.  Reducing to  5 matrices.
 Large coefficients: NSaved=  5 BigCof=   18.75 CofMax=   10.00 Det=-1.57D-15
 Inversion failed.  Reducing to  4 matrices.
 Large coefficients: NSaved=  4 BigCof=   12.17 CofMax=   10.00 Det=-3.02D-15
 Inversion failed.  Reducing to  3 matrices.
 Large coefficients: NSaved=  3 BigCof=   11.14 CofMax=   10.00 Det=-3.19D-15
 Inversion failed.  Reducing to  2 matrices.
 Coeff-Com: -0.529D+01 0.629D+01
 Coeff:     -0.529D+01 0.629D+01
 Gap=     0.471 Goal=   None    Shift=    0.000
 Gap=     0.420 Goal=   None    Shift=    0.000
 RMSDP=7.48D-06 MaxDP=3.12D-04 DE=-4.80D-09 OVMax= 8.22D-04

 Cycle  17  Pass 1  IDiag  1:
 E= -435.122298041579     Delta-E=       -0.000000025983 Rises=F Damp=F
 DIIS: error= 7.12D-06 at cycle  17 NSaved=   3.
 NSaved= 3 IEnMin= 3 EnMin= -435.122298041579     IErMin= 3 ErrMin= 7.12D-06
 ErrMax= 7.12D-06  0.00D+00 EMaxC= 1.00D-01 BMatC= 5.50D-10 BMatP= 5.51D-10
 IDIUse=1 WtCom= 1.00D+00 WtEn= 0.00D+00
 Coeff-Com:  0.371D+00-0.315D+01 0.378D+01
 Coeff:      0.371D+00-0.315D+01 0.378D+01
 Gap=     0.471 Goal=   None    Shift=    0.000
 Gap=     0.420 Goal=   None    Shift=    0.000
 RMSDP=2.04D-05 MaxDP=8.52D-04 DE=-2.60D-08 OVMax= 2.24D-03

 Cycle  18  Pass 1  IDiag  1:
 E= -435.122298112389     Delta-E=       -0.000000070810 Rises=F Damp=F
 DIIS: error= 7.10D-06 at cycle  18 NSaved=   4.
 NSaved= 4 IEnMin= 4 EnMin= -435.122298112389     IErMin= 4 ErrMin= 7.10D-06
 ErrMax= 7.10D-06  0.00D+00 EMaxC= 1.00D-01 BMatC= 5.53D-10 BMatP= 5.50D-10
 IDIUse=1 WtCom= 1.00D+00 WtEn= 0.00D+00
 Coeff-Com:  0.380D+00-0.347D+01 0.418D+01-0.943D-01
 Coeff:      0.380D+00-0.347D+01 0.418D+01-0.943D-01
 Gap=     0.471 Goal=   None    Shift=    0.000
 Gap=     0.420 Goal=   None    Shift=    0.000
 RMSDP=3.89D-07 MaxDP=1.63D-05 DE=-7.08D-08 OVMax= 4.27D-05

 Cycle  19  Pass 1  IDiag  1:
 E= -435.122298113737     Delta-E=       -0.000000001347 Rises=F Damp=F
 DIIS: error= 7.10D-06 at cycle  19 NSaved=   5.
 NSaved= 5 IEnMin= 5 EnMin= -435.122298113737     IErMin= 5 ErrMin= 7.10D-06
 ErrMax= 7.10D-06  0.00D+00 EMaxC= 1.00D-01 BMatC= 5.54D-10 BMatP= 5.50D-10
 IDIUse=1 WtCom= 1.00D+00 WtEn= 0.00D+00
 Large coefficients: NSaved=  5 BigCof=   46.11 CofMax=   10.00 Det=-3.65D-15
 Inversion failed.  Reducing to  4 matrices.
 Large coefficients: NSaved=  4 BigCof=   46.08 CofMax=   10.00 Det=-3.65D-15
 Inversion failed.  Reducing to  3 matrices.
 Large coefficients: NSaved=  3 BigCof=   45.62 CofMax=   10.00 Det=-3.65D-15
 Inversion failed.  Reducing to  2 matrices.
 Coeff-Com:  0.896D+01-0.796D+01
 Coeff:      0.896D+01-0.796D+01
 Gap=     0.471 Goal=   None    Shift=    0.000
 Gap=     0.420 Goal=   None    Shift=    0.000
 RMSDP=3.30D-06 MaxDP=1.38D-04 DE=-1.35D-09 OVMax= 3.63D-04

 Cycle  20  Pass 1  IDiag  1:
 E= -435.122298102299     Delta-E=        0.000000011437 Rises=F Damp=F
 DIIS: error= 7.10D-06 at cycle  20 NSaved=   3.
 NSaved= 3 IEnMin= 2 EnMin= -435.122298113737     IErMin= 2 ErrMin= 7.10D-06
 ErrMax= 7.10D-06  0.00D+00 EMaxC= 1.00D-01 BMatC= 5.47D-10 BMatP= 5.53D-10
 IDIUse=1 WtCom= 1.00D+00 WtEn= 0.00D+00
 Coeff-Com: -0.222D+00 0.140D+00 0.108D+01
 Coeff:     -0.222D+00 0.140D+00 0.108D+01
 Gap=     0.471 Goal=   None    Shift=    0.000
 Gap=     0.420 Goal=   None    Shift=    0.000
 RMSDP=6.37D-09 MaxDP=3.48D-07 DE= 1.14D-08 OVMax= 6.69D-07

 Cycle  21  Pass 1  IDiag  1:
 E= -435.122298102280     Delta-E=        0.000000000020 Rises=F Damp=F
 DIIS: error= 7.10D-06 at cycle  21 NSaved=   4.
 NSaved= 4 IEnMin= 2 EnMin= -435.122298113737     IErMin= 2 ErrMin= 7.10D-06
 ErrMax= 7.10D-06  0.00D+00 EMaxC= 1.00D-01 BMatC= 5.47D-10 BMatP= 5.47D-10
 IDIUse=1 WtCom= 1.00D+00 WtEn= 0.00D+00
 Coeff-Com: -0.465D+01 0.436D+01-0.153D+01 0.282D+01
 Coeff:     -0.465D+01 0.436D+01-0.153D+01 0.282D+01
 Gap=     0.471 Goal=   None    Shift=    0.000
 Gap=     0.420 Goal=   None    Shift=    0.000
 RMSDP=1.01D-06 MaxDP=4.19D-05 DE= 1.96D-11 OVMax= 1.11D-04

 Cycle  22  Pass 1  IDiag  1:
 E= -435.122298105773     Delta-E=       -0.000000003493 Rises=F Damp=F
 DIIS: error= 7.10D-06 at cycle  22 NSaved=   5.
 NSaved= 5 IEnMin= 2 EnMin= -435.122298113737     IErMin= 2 ErrMin= 7.10D-06
 ErrMax= 7.10D-06  0.00D+00 EMaxC= 1.00D-01 BMatC= 5.47D-10 BMatP= 5.47D-10
 IDIUse=1 WtCom= 1.00D+00 WtEn= 0.00D+00
 Coeff-Com:  0.872D-01 0.996D-01-0.108D+01-0.103D+01 0.292D+01
 Coeff:      0.872D-01 0.996D-01-0.108D+01-0.103D+01 0.292D+01
 Gap=     0.471 Goal=   None    Shift=    0.000
 Gap=     0.420 Goal=   None    Shift=    0.000
 RMSDP=2.69D-06 MaxDP=1.12D-04 DE=-3.49D-09 OVMax= 2.96D-04

 Cycle  23  Pass 1  IDiag  1:
 E= -435.122298115102     Delta-E=       -0.000000009329 Rises=F Damp=F
 DIIS: error= 7.10D-06 at cycle  23 NSaved=   6.
 NSaved= 6 IEnMin= 6 EnMin= -435.122298115102     IErMin= 6 ErrMin= 7.10D-06
 ErrMax= 7.10D-06  0.00D+00 EMaxC= 1.00D-01 BMatC= 5.47D-10 BMatP= 5.47D-10
 IDIUse=1 WtCom= 1.00D+00 WtEn= 0.00D+00
 Large coefficients: NSaved=  6 BigCof=  121.28 CofMax=   10.00 Det=-4.28D-16
 Inversion failed.  Reducing to  5 matrices.
 Coeff-Com: -0.127D+01 0.128D+01-0.101D+01-0.392D+00 0.240D+01
 Coeff:     -0.127D+01 0.128D+01-0.101D+01-0.392D+00 0.240D+01
 Gap=     0.471 Goal=   None    Shift=    0.000
 Gap=     0.420 Goal=   None    Shift=    0.000
 RMSDP=5.47D-06 MaxDP=2.28D-04 DE=-9.33D-09 OVMax= 6.02D-04

 Cycle  24  Pass 1  IDiag  1:
 E= -435.122298134042     Delta-E=       -0.000000018940 Rises=F Damp=F
 DIIS: error= 7.09D-06 at cycle  24 NSaved=   6.
 NSaved= 6 IEnMin= 6 EnMin= -435.122298134042     IErMin= 6 ErrMin= 7.09D-06
 ErrMax= 7.09D-06  0.00D+00 EMaxC= 1.00D-01 BMatC= 5.46D-10 BMatP= 5.47D-10
 IDIUse=1 WtCom= 1.00D+00 WtEn= 0.00D+00
 Large coefficients: NSaved=  6 BigCof=  101.13 CofMax=   10.00 Det=-1.88D-15
 Inversion failed.  Reducing to  5 matrices.
 Large coefficients: NSaved=  5 BigCof=   35.26 CofMax=   10.00 Det=-2.81D-15
 Inversion failed.  Reducing to  4 matrices.
 Coeff-Com: -0.374D+01 0.321D+01-0.796D+00 0.233D+01
 Coeff:     -0.374D+01 0.321D+01-0.796D+00 0.233D+01
 Gap=     0.471 Goal=   None    Shift=    0.000
 Gap=     0.420 Goal=   None    Shift=    0.000
 RMSDP=9.10D-06 MaxDP=3.78D-04 DE=-1.89D-08 OVMax= 1.00D-03

 Cycle  25  Pass 1  IDiag  1:
 E= -435.122298165488     Delta-E=       -0.000000031446 Rises=F Damp=F
 DIIS: error= 7.08D-06 at cycle  25 NSaved=   5.
 NSaved= 5 IEnMin= 5 EnMin= -435.122298165488     IErMin= 5 ErrMin= 7.08D-06
 ErrMax= 7.08D-06  0.00D+00 EMaxC= 1.00D-01 BMatC= 5.45D-10 BMatP= 5.46D-10
 IDIUse=1 WtCom= 1.00D+00 WtEn= 0.00D+00
 Large coefficients: NSaved=  5 BigCof=   32.52 CofMax=   10.00 Det=-4.34D-15
 Inversion failed.  Reducing to  4 matrices.
 Large coefficients: NSaved=  4 BigCof=   17.03 CofMax=   10.00 Det=-4.73D-14
 Inversion failed.  Reducing to  3 matrices.
 Coeff-Com: -0.788D+01 0.448D+01 0.440D+01
 Coeff:     -0.788D+01 0.448D+01 0.440D+01
 Gap=     0.471 Goal=   None    Shift=    0.000
 Gap=     0.420 Goal=   None    Shift=    0.000
 RMSDP=7.42D-05 MaxDP=3.07D-03 DE=-3.14D-08 OVMax= 8.16D-03

 Cycle  26  Pass 1  IDiag  1:
 E= -435.122298420227     Delta-E=       -0.000000254739 Rises=F Damp=F
 DIIS: error= 7.00D-06 at cycle  26 NSaved=   4.
 NSaved= 4 IEnMin= 4 EnMin= -435.122298420227     IErMin= 4 ErrMin= 7.00D-06
 ErrMax= 7.00D-06  0.00D+00 EMaxC= 1.00D-01 BMatC= 1.22D-09 BMatP= 5.45D-10
 IDIUse=1 WtCom= 1.00D+00 WtEn= 0.00D+00
 Large coefficients: NSaved=  4 BigCof=   34.37 CofMax=   10.00 Det=-6.98D-14
 Inversion failed.  Reducing to  3 matrices.
 Coeff-Com: -0.661D-01 0.107D+01-0.561D-02
 Coeff:     -0.661D-01 0.107D+01-0.561D-02
 Gap=     0.471 Goal=   None    Shift=    0.000
 Gap=     0.420 Goal=   None    Shift=    0.000
 RMSDP=7.39D-05 MaxDP=3.06D-03 DE=-2.55D-07 OVMax= 8.12D-03

 Cycle  27  Pass 1  IDiag  1:
 E= -435.122298166744     Delta-E=        0.000000253482 Rises=F Damp=F
 DIIS: error= 7.08D-06 at cycle  27 NSaved=   4.
 NSaved= 4 IEnMin= 3 EnMin= -435.122298420227     IErMin= 3 ErrMin= 7.00D-06
 ErrMax= 7.08D-06  0.00D+00 EMaxC= 1.00D-01 BMatC= 5.44D-10 BMatP= 5.45D-10
 IDIUse=1 WtCom= 1.00D+00 WtEn= 0.00D+00
 Large coefficients: NSaved=  4 BigCof=   80.38 CofMax=   10.00 Det=-9.91D-15
 Inversion failed.  Reducing to  3 matrices.
 Coeff-Com:  0.260D+00 0.399D-02 0.736D+00
 Coeff:      0.260D+00 0.399D-02 0.736D+00
 Gap=     0.471 Goal=   None    Shift=    0.000
 Gap=     0.420 Goal=   None    Shift=    0.000
 RMSDP=3.79D-07 MaxDP=1.57D-05 DE= 2.53D-07 OVMax= 4.17D-05

 Cycle  28  Pass 1  IDiag  1:
 E= -435.122298168056     Delta-E=       -0.000000001312 Rises=F Damp=F
 DIIS: error= 7.08D-06 at cycle  28 NSaved=   4.
 NSaved= 4 IEnMin= 2 EnMin= -435.122298420227     IErMin= 2 ErrMin= 7.00D-06
 ErrMax= 7.08D-06  0.00D+00 EMaxC= 1.00D-01 BMatC= 5.44D-10 BMatP= 5.44D-10
 IDIUse=1 WtCom= 1.00D+00 WtEn= 0.00D+00
 Coeff-Com: -0.293D+01 0.887D-01-0.253D+01 0.637D+01
 Coeff:     -0.293D+01 0.887D-01-0.253D+01 0.637D+01
 Gap=     0.471 Goal=   None    Shift=    0.000
 Gap=     0.420 Goal=   None    Shift=    0.000
 RMSDP=9.83D-06 MaxDP=4.08D-04 DE=-1.31D-09 OVMax= 1.08D-03

 Cycle  29  Pass 1  IDiag  1:
 E= -435.122298201995     Delta-E=       -0.000000033940 Rises=F Damp=F
 DIIS: error= 7.07D-06 at cycle  29 NSaved=   5.
 NSaved= 5 IEnMin= 2 EnMin= -435.122298420227     IErMin= 2 ErrMin= 7.00D-06
 ErrMax= 7.07D-06  0.00D+00 EMaxC= 1.00D-01 BMatC= 5.44D-10 BMatP= 5.44D-10
 IDIUse=1 WtCom= 1.00D+00 WtEn= 0.00D+00
 Large coefficients: NSaved=  5 BigCof=   69.33 CofMax=   10.00 Det=-3.06D-15
 Inversion failed.  Reducing to  4 matrices.
 Coeff-Com:  0.251D+00-0.147D+01-0.266D+01 0.488D+01
 Coeff:      0.251D+00-0.147D+01-0.266D+01 0.488D+01
 Gap=     0.471 Goal=   None    Shift=    0.000
 Gap=     0.420 Goal=   None    Shift=    0.000
 RMSDP=5.73D-05 MaxDP=2.37D-03 DE=-3.39D-08 OVMax= 6.30D-03

 Cycle  30  Pass 1  IDiag  1:
 E= -435.122298398626     Delta-E=       -0.000000196630 Rises=F Damp=F
 DIIS: error= 7.00D-06 at cycle  30 NSaved=   5.
 NSaved= 5 IEnMin= 1 EnMin= -435.122298420227     IErMin= 1 ErrMin= 7.00D-06
 ErrMax= 7.00D-06  0.00D+00 EMaxC= 1.00D-01 BMatC= 6.41D-10 BMatP= 5.44D-10
 IDIUse=1 WtCom= 1.00D+00 WtEn= 0.00D+00
 Large coefficients: NSaved=  5 BigCof=   12.05 CofMax=   10.00 Det=-1.28D-14
 Inversion failed.  Reducing to  4 matrices.
 Coeff-Com:  0.141D+00-0.335D+01 0.406D+01 0.155D+00
 Coeff:      0.141D+00-0.335D+01 0.406D+01 0.155D+00
 Gap=     0.471 Goal=   None    Shift=    0.000
 Gap=     0.420 Goal=   None    Shift=    0.000
 RMSDP=6.32D-06 MaxDP=2.61D-04 DE=-1.97D-07 OVMax= 6.95D-04

 Cycle  31  Pass 1  IDiag  1:
 E= -435.122298377025     Delta-E=        0.000000021601 Rises=F Damp=F
 DIIS: error= 7.01D-06 at cycle  31 NSaved=   5.
 NSaved= 5 IEnMin= 1 EnMin= -435.122298420227     IErMin= 1 ErrMin= 7.00D-06
 ErrMax= 7.01D-06  0.00D+00 EMaxC= 1.00D-01 BMatC= 5.86D-10 BMatP= 5.44D-10
 IDIUse=1 WtCom= 1.00D+00 WtEn= 0.00D+00
 Large coefficients: NSaved=  5 BigCof=   27.00 CofMax=   10.00 Det=-1.35D-14
 Inversion failed.  Reducing to  4 matrices.
 Coeff-Com: -0.516D+00-0.611D+00-0.690D+00 0.282D+01
 Coeff:     -0.516D+00-0.611D+00-0.690D+00 0.282D+01
 Gap=     0.471 Goal=   None    Shift=    0.000
 Gap=     0.420 Goal=   None    Shift=    0.000
 RMSDP=2.04D-05 MaxDP=8.38D-04 DE= 2.16D-08 OVMax= 2.24D-03

 Cycle  32  Pass 1  IDiag  1:
 E= -435.122298446659     Delta-E=       -0.000000069634 Rises=F Damp=F
 DIIS: error= 6.99D-06 at cycle  32 NSaved=   5.
 NSaved= 5 IEnMin= 5 EnMin= -435.122298446659     IErMin= 5 ErrMin= 6.99D-06
 ErrMax= 6.99D-06  0.00D+00 EMaxC= 1.00D-01 BMatC= 6.00D-10 BMatP= 5.44D-10
 IDIUse=1 WtCom= 1.00D+00 WtEn= 0.00D+00
 Large coefficients: NSaved=  5 BigCof=   60.90 CofMax=   10.00 Det=-2.04D-14
 Inversion failed.  Reducing to  4 matrices.
 Coeff-Com:  0.392D+00-0.556D+01 0.311D+01 0.305D+01
 Coeff:      0.392D+00-0.556D+01 0.311D+01 0.305D+01
 Gap=     0.471 Goal=   None    Shift=    0.000
 Gap=     0.420 Goal=   None    Shift=    0.000
 RMSDP=1.19D-05 MaxDP=4.84D-04 DE=-6.96D-08 OVMax= 1.31D-03

 Cycle  33  Pass 1  IDiag  1:
 E= -435.122298487119     Delta-E=       -0.000000040460 Rises=F Damp=F
 DIIS: error= 6.97D-06 at cycle  33 NSaved=   5.
 NSaved= 5 IEnMin= 5 EnMin= -435.122298487119     IErMin= 5 ErrMin= 6.97D-06
 ErrMax= 6.97D-06  0.00D+00 EMaxC= 1.00D-01 BMatC= 5.29D-10 BMatP= 5.86D-10
 IDIUse=1 WtCom= 1.00D+00 WtEn= 0.00D+00
 Large coefficients: NSaved=  5 BigCof=   23.71 CofMax=   10.00 Det=-2.22D-14
 Inversion failed.  Reducing to  4 matrices.
 Coeff-Com:  0.457D+00-0.289D+01 0.221D+01 0.122D+01
 Coeff:      0.457D+00-0.289D+01 0.221D+01 0.122D+01
 Gap=     0.471 Goal=   None    Shift=    0.000
 Gap=     0.420 Goal=   None    Shift=    0.000
 RMSDP=3.99D-05 MaxDP=1.63D-03 DE=-4.05D-08 OVMax= 4.38D-03

 Cycle  34  Pass 1  IDiag  1:
 E= -435.122298622385     Delta-E=       -0.000000135266 Rises=F Damp=F
 DIIS: error= 6.93D-06 at cycle  34 NSaved=   5.
 NSaved= 5 IEnMin= 5 EnMin= -435.122298622385     IErMin= 5 ErrMin= 6.93D-06
 ErrMax= 6.93D-06  0.00D+00 EMaxC= 1.00D-01 BMatC= 6.55D-10 BMatP= 5.29D-10
 IDIUse=1 WtCom= 1.00D+00 WtEn= 0.00D+00
 Large coefficients: NSaved=  5 BigCof=   17.82 CofMax=   10.00 Det=-3.98D-13
 Inversion failed.  Reducing to  4 matrices.
 Large coefficients: NSaved=  4 BigCof=   15.19 CofMax=   10.00 Det=-7.51D-13
 Inversion failed.  Reducing to  3 matrices.
 Coeff-Com: -0.487D+00 0.109D+01 0.401D+00
 Coeff:     -0.487D+00 0.109D+01 0.401D+00
 Gap=     0.471 Goal=   None    Shift=    0.000
 Gap=     0.420 Goal=   None    Shift=    0.000
 RMSDP=1.80D-05 MaxDP=7.35D-04 DE=-1.35D-07 OVMax= 1.97D-03

 Cycle  35  Pass 1  IDiag  1:
 E= -435.122298561630     Delta-E=        0.000000060755 Rises=F Damp=F
 DIIS: error= 6.95D-06 at cycle  35 NSaved=   4.
 NSaved= 4 IEnMin= 3 EnMin= -435.122298622385     IErMin= 3 ErrMin= 6.93D-06
 ErrMax= 6.95D-06  0.00D+00 EMaxC= 1.00D-01 BMatC= 5.26D-10 BMatP= 5.29D-10
 IDIUse=1 WtCom= 1.00D+00 WtEn= 0.00D+00
 Coeff-Com: -0.134D+01-0.467D+00 0.101D+01 0.179D+01
 Coeff:     -0.134D+01-0.467D+00 0.101D+01 0.179D+01
 Gap=     0.471 Goal=   None    Shift=    0.000
 Gap=     0.420 Goal=   None    Shift=    0.000
 RMSDP=7.39D-05 MaxDP=3.01D-03 DE= 6.08D-08 OVMax= 8.12D-03

 Cycle  36  Pass 1  IDiag  1:
 E= -435.122298810498     Delta-E=       -0.000000248869 Rises=F Damp=F
 DIIS: error= 6.86D-06 at cycle  36 NSaved=   5.
 NSaved= 5 IEnMin= 5 EnMin= -435.122298810498     IErMin= 5 ErrMin= 6.86D-06
 ErrMax= 6.86D-06  0.00D+00 EMaxC= 1.00D-01 BMatC= 1.20D-09 BMatP= 5.26D-10
 IDIUse=1 WtCom= 1.00D+00 WtEn= 0.00D+00
 Coeff-Com: -0.142D+01 0.318D+01-0.624D+01 0.221D+01 0.327D+01
 Coeff:     -0.142D+01 0.318D+01-0.624D+01 0.221D+01 0.327D+01
 Gap=     0.471 Goal=   None    Shift=    0.000
 Gap=     0.420 Goal=   None    Shift=    0.000
 RMSDP=3.40D-05 MaxDP=1.35D-03 DE=-2.49D-07 OVMax= 3.74D-03

 Cycle  37  Pass 1  IDiag  1:
 E= -435.122298924078     Delta-E=       -0.000000113580 Rises=F Damp=F
 DIIS: error= 6.83D-06 at cycle  37 NSaved=   6.
 NSaved= 6 IEnMin= 6 EnMin= -435.122298924078     IErMin= 6 ErrMin= 6.83D-06
 ErrMax= 6.83D-06  0.00D+00 EMaxC= 1.00D-01 BMatC= 7.62D-10 BMatP= 5.26D-10
 IDIUse=1 WtCom= 1.00D+00 WtEn= 0.00D+00
 Large coefficients: NSaved=  6 BigCof=   16.18 CofMax=   10.00 Det=-1.37D-13
 Inversion failed.  Reducing to  5 matrices.
 Coeff-Com:  0.270D+01-0.936D+01 0.244D+00 0.538D+01 0.204D+01
 Coeff:      0.270D+01-0.936D+01 0.244D+00 0.538D+01 0.204D+01
 Gap=     0.471 Goal=   None    Shift=    0.000
 Gap=     0.420 Goal=   None    Shift=    0.000
 RMSDP=2.82D-04 MaxDP=1.12D-02 DE=-1.14D-07 OVMax= 3.10D-02

 Cycle  38  Pass 1  IDiag  1:
 E= -435.122299805373     Delta-E=       -0.000000881294 Rises=F Damp=F
 DIIS: error= 6.84D-05 at cycle  38 NSaved=   6.
 NSaved= 6 IEnMin= 6 EnMin= -435.122299805373     IErMin= 5 ErrMin= 6.83D-06
 ErrMax= 6.84D-05  0.00D+00 EMaxC= 1.00D-01 BMatC= 1.50D-07 BMatP= 5.26D-10
 IDIUse=1 WtCom= 1.00D+00 WtEn= 0.00D+00
 Coeff-Com:  0.386D+01-0.917D+01 0.652D+00 0.272D+01 0.273D+01 0.205D+00
 Coeff:      0.386D+01-0.917D+01 0.652D+00 0.272D+01 0.273D+01 0.205D+00
 Gap=     0.471 Goal=   None    Shift=    0.000
 Gap=     0.420 Goal=   None    Shift=    0.000
 RMSDP=6.39D-05 MaxDP=2.54D-03 DE=-8.81D-07 OVMax= 7.02D-03

 Cycle  39  Pass 1  IDiag  1:
 E= -435.122299633605     Delta-E=        0.000000171768 Rises=F Damp=F
 DIIS: error= 2.01D-05 at cycle  39 NSaved=   7.
 NSaved= 7 IEnMin= 6 EnMin= -435.122299805373     IErMin= 5 ErrMin= 6.83D-06
 ErrMax= 2.01D-05  0.00D+00 EMaxC= 1.00D-01 BMatC= 1.34D-08 BMatP= 5.26D-10
 IDIUse=1 WtCom= 1.00D+00 WtEn= 0.00D+00
 Large coefficients: NSaved=  7 BigCof=   20.36 CofMax=   10.00 Det=-5.69D-14
 Inversion failed.  Reducing to  6 matrices.
 Coeff-Com:  0.221D+01-0.272D+00-0.539D+01 0.830D+00-0.104D+01 0.466D+01
 Coeff:      0.221D+01-0.272D+00-0.539D+01 0.830D+00-0.104D+01 0.466D+01
 Gap=     0.471 Goal=   None    Shift=    0.000
 Gap=     0.420 Goal=   None    Shift=    0.000
 RMSDP=5.15D-04 MaxDP=1.94D-02 DE= 1.72D-07 OVMax= 5.66D-02

 Cycle  40  Pass 1  IDiag  1:
 E= -435.122300675579     Delta-E=       -0.000001041975 Rises=F Damp=F
 DIIS: error= 2.74D-04 at cycle  40 NSaved=   7.
 NSaved= 7 IEnMin= 7 EnMin= -435.122300675579     IErMin= 4 ErrMin= 6.83D-06
 ErrMax= 2.74D-04  0.00D+00 EMaxC= 1.00D-01 BMatC= 2.29D-06 BMatP= 5.26D-10
 IDIUse=1 WtCom= 1.00D+00 WtEn= 0.00D+00
 Coeff-Com:  0.216D+01-0.290D+00-0.527D+01 0.808D+00-0.105D+01 0.464D+01
 Coeff-Com:  0.166D-02
 Coeff:      0.216D+01-0.290D+00-0.527D+01 0.808D+00-0.105D+01 0.464D+01
 Coeff:      0.166D-02
 Gap=     0.471 Goal=   None    Shift=    0.000
 Gap=     0.420 Goal=   None    Shift=    0.000
 RMSDP=3.18D-06 MaxDP=1.15D-04 DE=-1.04D-06 OVMax= 3.50D-04

 Cycle  41  Pass 1  IDiag  1:
 E= -435.122300675615     Delta-E=       -0.000000000035 Rises=F Damp=F
 DIIS: error= 2.72D-04 at cycle  41 NSaved=   8.
 NSaved= 8 IEnMin= 8 EnMin= -435.122300675615     IErMin= 4 ErrMin= 6.83D-06
 ErrMax= 2.72D-04  0.00D+00 EMaxC= 1.00D-01 BMatC= 2.25D-06 BMatP= 5.26D-10
 IDIUse=1 WtCom= 1.00D+00 WtEn= 0.00D+00
 Large coefficients: NSaved=  8 BigCof=  182.37 CofMax=   10.00 Det=-1.15D-15
 Inversion failed.  Reducing to  7 matrices.
 Large coefficients: NSaved=  7 BigCof=   98.98 CofMax=   10.00 Det=-1.98D-15
 Inversion failed.  Reducing to  6 matrices.
 Large coefficients: NSaved=  6 BigCof=   75.62 CofMax=   10.00 Det=-3.25D-15
 Inversion failed.  Reducing to  5 matrices.
 Large coefficients: NSaved=  5 BigCof=   94.19 CofMax=   10.00 Det=-3.60D-15
 Inversion failed.  Reducing to  4 matrices.
 Large coefficients: NSaved=  4 BigCof=   93.18 CofMax=   10.00 Det=-3.60D-15
 Inversion failed.  Reducing to  3 matrices.
 Large coefficients: NSaved=  3 BigCof=  101.31 CofMax=   10.00 Det=-2.36D-13
 Inversion failed.  Reducing to  2 matrices.
 Large coefficients: NSaved=  2 BigCof=  113.67 CofMax=   10.00 Det=-1.76D-10
 Coeff-Com: -0.113D+03 0.114D+03
 Coeff:     -0.113D+03 0.114D+03
 Gap=     0.471 Goal=   None    Shift=    0.000
 Gap=     0.420 Goal=   None    Shift=    0.000
 RMSDP=3.57D-04 MaxDP=1.33D-02 DE=-3.51D-11 OVMax= 3.93D-02

 Cycle  42  Pass 1  IDiag  1:
 E= -435.122300066351     Delta-E=        0.000000609264 Rises=F Damp=F
 DIIS: error= 8.85D-05 at cycle  42 NSaved=   3.
 NSaved= 3 IEnMin= 2 EnMin= -435.122300675615     IErMin= 3 ErrMin= 8.85D-05
 ErrMax= 8.85D-05  0.00D+00 EMaxC= 1.00D-01 BMatC= 2.50D-07 BMatP= 2.25D-06
 IDIUse=1 WtCom= 1.00D+00 WtEn= 0.00D+00
 Large coefficients: NSaved=  3 BigCof=  184.81 CofMax=   10.00 Det=-7.22D-14
 Inversion failed.  Reducing to  2 matrices.
 Coeff-Com: -0.490D+00 0.149D+01
 Coeff:     -0.490D+00 0.149D+01
 Gap=     0.471 Goal=   None    Shift=    0.000
 Gap=     0.420 Goal=   None    Shift=    0.000
 RMSDP=1.75D-04 MaxDP=6.71D-03 DE= 6.09D-07 OVMax= 1.92D-02

 Cycle  43  Pass 1  IDiag  1:
 E= -435.122299541951     Delta-E=        0.000000524400 Rises=F Damp=F
 DIIS: error= 6.34D-05 at cycle  43 NSaved=   3.
 NSaved= 3 IEnMin= 1 EnMin= -435.122300675615     IErMin= 3 ErrMin= 6.34D-05
 ErrMax= 6.34D-05  0.00D+00 EMaxC= 1.00D-01 BMatC= 1.31D-07 BMatP= 2.50D-07
 IDIUse=1 WtCom= 1.00D+00 WtEn= 0.00D+00
 Coeff-Com:  0.254D+00-0.464D+01 0.539D+01
 Coeff:      0.254D+00-0.464D+01 0.539D+01
 Gap=     0.471 Goal=   None    Shift=    0.000
 Gap=     0.420 Goal=   None    Shift=    0.000
 RMSDP=6.69D-04 MaxDP=2.69D-02 DE= 5.24D-07 OVMax= 7.35D-02

 Cycle  44  Pass 1  IDiag  1:
 E= -435.122296365938     Delta-E=        0.000003176013 Rises=F Damp=F
 DIIS: error= 3.36D-04 at cycle  44 NSaved=   4.
 NSaved= 4 IEnMin= 1 EnMin= -435.122300675615     IErMin= 3 ErrMin= 6.34D-05
 ErrMax= 3.36D-04  0.00D+00 EMaxC= 1.00D-01 BMatC= 4.04D-06 BMatP= 1.31D-07
 IDIUse=1 WtCom= 1.00D+00 WtEn= 0.00D+00
 Coeff-Com: -0.200D+00 0.993D+00 0.374D+00-0.166D+00
 Coeff:     -0.200D+00 0.993D+00 0.374D+00-0.166D+00
 Gap=     0.472 Goal=   None    Shift=    0.000
 Gap=     0.420 Goal=   None    Shift=    0.000
 RMSDP=8.46D-04 MaxDP=3.38D-02 DE= 3.18D-06 OVMax= 9.30D-02

 Cycle  45  Pass 1  IDiag  1:
 E= -435.122300073099     Delta-E=       -0.000003707160 Rises=F Damp=F
 DIIS: error= 9.07D-05 at cycle  45 NSaved=   5.
 NSaved= 5 IEnMin= 1 EnMin= -435.122300675615     IErMin= 3 ErrMin= 6.34D-05
 ErrMax= 9.07D-05  0.00D+00 EMaxC= 1.00D-01 BMatC= 2.60D-07 BMatP= 1.31D-07
 IDIUse=1 WtCom= 1.00D+00 WtEn= 0.00D+00
 Coeff-Com: -0.402D+00 0.310D+00-0.478D+00-0.123D+00 0.169D+01
 Coeff:     -0.402D+00 0.310D+00-0.478D+00-0.123D+00 0.169D+01
 Gap=     0.471 Goal=   None    Shift=    0.000
 Gap=     0.420 Goal=   None    Shift=    0.000
 RMSDP=4.51D-05 MaxDP=1.71D-03 DE=-3.71D-06 OVMax= 4.96D-03

 Cycle  46  Pass 1  IDiag  1:
 E= -435.122300190127     Delta-E=       -0.000000117029 Rises=F Damp=F
 DIIS: error= 1.06D-04 at cycle  46 NSaved=   6.
 NSaved= 6 IEnMin= 1 EnMin= -435.122300675615     IErMin= 3 ErrMin= 6.34D-05
 ErrMax= 1.06D-04  0.00D+00 EMaxC= 1.00D-01 BMatC= 3.58D-07 BMatP= 1.31D-07
 IDIUse=1 WtCom= 1.00D+00 WtEn= 0.00D+00
 Coeff-Com: -0.539D+00 0.694D+00-0.759D+00-0.137D+00 0.401D+00 0.134D+01
 Coeff:     -0.539D+00 0.694D+00-0.759D+00-0.137D+00 0.401D+00 0.134D+01
 Gap=     0.471 Goal=   None    Shift=    0.000
 Gap=     0.420 Goal=   None    Shift=    0.000
 RMSDP=7.23D-05 MaxDP=2.73D-03 DE=-1.17D-07 OVMax= 7.94D-03

 Cycle  47  Pass 1  IDiag  1:
 E= -435.122300356053     Delta-E=       -0.000000165926 Rises=F Damp=F
 DIIS: error= 1.38D-04 at cycle  47 NSaved=   7.
 NSaved= 7 IEnMin= 1 EnMin= -435.122300675615     IErMin= 3 ErrMin= 6.34D-05
 ErrMax= 1.38D-04  0.00D+00 EMaxC= 1.00D-01 BMatC= 5.95D-07 BMatP= 1.31D-07
 IDIUse=1 WtCom= 1.00D+00 WtEn= 0.00D+00
 Coeff-Com: -0.334D+00 0.800D+00-0.960D+00-0.118D+00 0.102D+00 0.309D+01
 Coeff-Com: -0.158D+01
 Coeff:     -0.334D+00 0.800D+00-0.960D+00-0.118D+00 0.102D+00 0.309D+01
 Coeff:     -0.158D+01
 Gap=     0.471 Goal=   None    Shift=    0.000
 Gap=     0.420 Goal=   None    Shift=    0.000
 RMSDP=1.50D-05 MaxDP=5.73D-04 DE=-1.66D-07 OVMax= 1.65D-03

 Cycle  48  Pass 1  IDiag  1:
 E= -435.122300334410     Delta-E=        0.000000021643 Rises=F Damp=F
 DIIS: error= 1.25D-04 at cycle  48 NSaved=   8.
 NSaved= 8 IEnMin= 1 EnMin= -435.122300675615     IErMin= 3 ErrMin= 6.34D-05
 ErrMax= 1.25D-04  0.00D+00 EMaxC= 1.00D-01 BMatC= 4.91D-07 BMatP= 1.31D-07
 IDIUse=1 WtCom= 1.00D+00 WtEn= 0.00D+00
 Coeff-Com: -0.435D+00 0.691D+00-0.689D+00-0.121D+00-0.148D+00 0.130D+01
 Coeff-Com: -0.269D+01 0.309D+01
 Coeff:     -0.435D+00 0.691D+00-0.689D+00-0.121D+00-0.148D+00 0.130D+01
 Coeff:     -0.269D+01 0.309D+01
 Gap=     0.471 Goal=   None    Shift=    0.000
 Gap=     0.420 Goal=   None    Shift=    0.000
 RMSDP=2.54D-05 MaxDP=9.31D-04 DE= 2.16D-08 OVMax= 2.79D-03

 Cycle  49  Pass 1  IDiag  1:
 E= -435.122300412598     Delta-E=       -0.000000078188 Rises=F Damp=F
 DIIS: error= 1.25D-04 at cycle  49 NSaved=   9.
 NSaved= 9 IEnMin= 1 EnMin= -435.122300675615     IErMin= 3 ErrMin= 6.34D-05
 ErrMax= 1.25D-04  0.00D+00 EMaxC= 1.00D-01 BMatC= 4.86D-07 BMatP= 1.31D-07
 IDIUse=1 WtCom= 1.00D+00 WtEn= 0.00D+00
 Coeff-Com: -0.566D+00 0.449D+00-0.359D+00-0.113D+00-0.336D-01-0.163D-01
 Coeff-Com: -0.193D+01 0.114D+01 0.243D+01
 Coeff:     -0.566D+00 0.449D+00-0.359D+00-0.113D+00-0.336D-01-0.163D-01
 Coeff:     -0.193D+01 0.114D+01 0.243D+01
 Gap=     0.471 Goal=   None    Shift=    0.000
 Gap=     0.420 Goal=   None    Shift=    0.000
 RMSDP=2.88D-05 MaxDP=1.03D-03 DE=-7.82D-08 OVMax= 3.17D-03

 Cycle  50  Pass 1  IDiag  1:
 E= -435.122300521129     Delta-E=       -0.000000108531 Rises=F Damp=F
 DIIS: error= 1.12D-04 at cycle  50 NSaved=  10.
 NSaved=10 IEnMin= 1 EnMin= -435.122300675615     IErMin= 3 ErrMin= 6.34D-05
 ErrMax= 1.12D-04  0.00D+00 EMaxC= 1.00D-01 BMatC= 3.90D-07 BMatP= 1.31D-07
 IDIUse=1 WtCom= 1.00D+00 WtEn= 0.00D+00
 Large coefficients: NSaved= 10 BigCof=   19.96 CofMax=   10.00 Det=-6.73D-14
 Inversion failed.  Reducing to  9 matrices.
 Coeff-Com: -0.580D+00-0.163D+00 0.297D+00 0.563D-01-0.725D+00 0.307D+01
 Coeff-Com: -0.819D+01 0.139D+01 0.584D+01
 Coeff:     -0.580D+00-0.163D+00 0.297D+00 0.563D-01-0.725D+00 0.307D+01
 Coeff:     -0.819D+01 0.139D+01 0.584D+01
 Gap=     0.471 Goal=   None    Shift=    0.000
 Gap=     0.420 Goal=   None    Shift=    0.000
 RMSDP=1.67D-04 MaxDP=5.84D-03 DE=-1.09D-07 OVMax= 1.84D-02

 Cycle  51  Pass 1  IDiag  1:
 E= -435.122301095555     Delta-E=       -0.000000574426 Rises=F Damp=F
 DIIS: error= 3.30D-05 at cycle  51 NSaved=  10.
 NSaved=10 IEnMin=10 EnMin= -435.122301095555     IErMin=10 ErrMin= 3.30D-05
 ErrMax= 3.30D-05  0.00D+00 EMaxC= 1.00D-01 BMatC= 3.35D-08 BMatP= 1.31D-07
 IDIUse=1 WtCom= 1.00D+00 WtEn= 0.00D+00
 Large coefficients: NSaved= 10 BigCof=   67.57 CofMax=   10.00 Det=-2.14D-14
 Inversion failed.  Reducing to  9 matrices.
 Large coefficients: NSaved=  9 BigCof=   49.03 CofMax=   10.00 Det=-2.93D-14
 Inversion failed.  Reducing to  8 matrices.
 Large coefficients: NSaved=  8 BigCof=   26.56 CofMax=   10.00 Det=-4.50D-14
 Inversion failed.  Reducing to  7 matrices.
 Large coefficients: NSaved=  7 BigCof=   25.42 CofMax=   10.00 Det=-4.80D-14
 Inversion failed.  Reducing to  6 matrices.
 Coeff-Com:  0.146D+00-0.408D+00 0.235D+01-0.409D-01-0.300D+01 0.196D+01
 Coeff:      0.146D+00-0.408D+00 0.235D+01-0.409D-01-0.300D+01 0.196D+01
 Gap=     0.471 Goal=   None    Shift=    0.000
 Gap=     0.420 Goal=   None    Shift=    0.000
 RMSDP=7.99D-05 MaxDP=2.71D-03 DE=-5.74D-07 OVMax= 8.79D-03

 Cycle  52  Pass 1  IDiag  1:
 E= -435.122301331555     Delta-E=       -0.000000236000 Rises=F Damp=F
 DIIS: error= 5.85D-06 at cycle  52 NSaved=   7.
 NSaved= 7 IEnMin= 7 EnMin= -435.122301331555     IErMin= 7 ErrMin= 5.85D-06
 ErrMax= 5.85D-06  0.00D+00 EMaxC= 1.00D-01 BMatC= 8.55D-10 BMatP= 3.35D-08
 IDIUse=1 WtCom= 1.00D+00 WtEn= 0.00D+00
 Coeff-Com:  0.312D+00 0.170D+01-0.307D+01 0.311D+01-0.226D+01-0.174D+01
 Coeff-Com:  0.295D+01
 Coeff:      0.312D+00 0.170D+01-0.307D+01 0.311D+01-0.226D+01-0.174D+01
 Coeff:      0.295D+01
 Gap=     0.471 Goal=   None    Shift=    0.000
 Gap=     0.420 Goal=   None    Shift=    0.000
 RMSDP=2.62D-04 MaxDP=8.90D-03 DE=-2.36D-07 OVMax= 2.88D-02

 Cycle  53  Pass 1  IDiag  1:
 E= -435.122302000471     Delta-E=       -0.000000668916 Rises=F Damp=F
 DIIS: error= 8.46D-05 at cycle  53 NSaved=   8.
 NSaved= 8 IEnMin= 8 EnMin= -435.122302000471     IErMin= 7 ErrMin= 5.85D-06
 ErrMax= 8.46D-05  0.00D+00 EMaxC= 1.00D-01 BMatC= 2.11D-07 BMatP= 8.55D-10
 IDIUse=1 WtCom= 1.00D+00 WtEn= 0.00D+00
 Coeff-Com: -0.105D+01 0.138D+01-0.975D+01 0.797D+01 0.337D+01-0.519D+01
 Coeff-Com:  0.278D+01 0.147D+01
 Coeff:     -0.105D+01 0.138D+01-0.975D+01 0.797D+01 0.337D+01-0.519D+01
 Coeff:      0.278D+01 0.147D+01
 Gap=     0.471 Goal=   None    Shift=    0.000
 Gap=     0.420 Goal=   None    Shift=    0.000
 RMSDP=9.69D-05 MaxDP=2.96D-03 DE=-6.69D-07 OVMax= 1.07D-02

 Cycle  54  Pass 1  IDiag  1:
 E= -435.122302300177     Delta-E=       -0.000000299705 Rises=F Damp=F
 DIIS: error= 1.55D-05 at cycle  54 NSaved=   9.
 NSaved= 9 IEnMin= 9 EnMin= -435.122302300177     IErMin= 7 ErrMin= 5.85D-06
 ErrMax= 1.55D-05  0.00D+00 EMaxC= 1.00D-01 BMatC= 7.10D-09 BMatP= 8.55D-10
 IDIUse=1 WtCom= 1.00D+00 WtEn= 0.00D+00
 Large coefficients: NSaved=  9 BigCof=   30.59 CofMax=   10.00 Det=-7.19D-14
 Inversion failed.  Reducing to  8 matrices.
 Coeff-Com:  0.661D+00-0.155D+01 0.167D+01-0.464D+00-0.191D+01 0.363D+00
 Coeff-Com: -0.133D+01 0.355D+01
 Coeff:      0.661D+00-0.155D+01 0.167D+01-0.464D+00-0.191D+01 0.363D+00
 Coeff:     -0.133D+01 0.355D+01
 Gap=     0.471 Goal=   None    Shift=    0.000
 Gap=     0.420 Goal=   None    Shift=    0.000
 RMSDP=7.67D-04 MaxDP=2.41D-02 DE=-3.00D-07 OVMax= 8.43D-02

 Cycle  55  Pass 1  IDiag  1:
 E= -435.122300914526     Delta-E=        0.000001385651 Rises=F Damp=F
 DIIS: error= 6.98D-04 at cycle  55 NSaved=   9.
 NSaved= 9 IEnMin= 8 EnMin= -435.122302300177     IErMin= 6 ErrMin= 5.85D-06
 ErrMax= 6.98D-04  0.00D+00 EMaxC= 1.00D-01 BMatC= 1.37D-05 BMatP= 8.55D-10
 IDIUse=1 WtCom= 1.00D+00 WtEn= 0.00D+00
 Coeff-Com:  0.118D+01 0.330D-01 0.801D-01-0.742D+00-0.146D+01 0.348D+00
 Coeff-Com: -0.399D+01 0.548D+01 0.742D-01
 Coeff:      0.118D+01 0.330D-01 0.801D-01-0.742D+00-0.146D+01 0.348D+00
 Coeff:     -0.399D+01 0.548D+01 0.742D-01
 Gap=     0.470 Goal=   None    Shift=    0.000
 Gap=     0.420 Goal=   None    Shift=    0.000
 RMSDP=7.14D-05 MaxDP=2.40D-03 DE= 1.39D-06 OVMax= 7.85D-03

 Cycle  56  Pass 1  IDiag  1:
 E= -435.122300963826     Delta-E=       -0.000000049300 Rises=F Damp=F
 DIIS: error= 7.08D-04 at cycle  56 NSaved=  10.
 NSaved=10 IEnMin= 8 EnMin= -435.122302300177     IErMin= 6 ErrMin= 5.85D-06
 ErrMax= 7.08D-04  0.00D+00 EMaxC= 1.00D-01 BMatC= 1.41D-05 BMatP= 8.55D-10
 IDIUse=1 WtCom= 1.00D+00 WtEn= 0.00D+00
 Coeff-Com:  0.312D+00-0.154D+01 0.196D+01 0.197D+01-0.299D+01-0.696D+00
 Coeff-Com: -0.801D+01 0.954D+01 0.322D+01-0.277D+01
 Coeff:      0.312D+00-0.154D+01 0.196D+01 0.197D+01-0.299D+01-0.696D+00
 Coeff:     -0.801D+01 0.954D+01 0.322D+01-0.277D+01
 Gap=     0.470 Goal=   None    Shift=    0.000
 Gap=     0.420 Goal=   None    Shift=    0.000
 RMSDP=8.09D-05 MaxDP=2.80D-03 DE=-4.93D-08 OVMax= 8.88D-03

 Cycle  57  Pass 1  IDiag  1:
 E= -435.122302567943     Delta-E=       -0.000001604117 Rises=F Damp=F
 DIIS: error= 5.26D-04 at cycle  57 NSaved=  11.
 NSaved=11 IEnMin=11 EnMin= -435.122302567943     IErMin= 6 ErrMin= 5.85D-06
 ErrMax= 5.26D-04  0.00D+00 EMaxC= 1.00D-01 BMatC= 7.73D-06 BMatP= 8.55D-10
 IDIUse=1 WtCom= 1.00D+00 WtEn= 0.00D+00
 Large coefficients: NSaved= 11 BigCof=   18.56 CofMax=   10.00 Det=-1.90D-13
 Inversion failed.  Reducing to 10 matrices.
 Coeff-Com:  0.140D+01-0.173D+01 0.255D+00 0.826D+00-0.110D+01-0.490D+01
 Coeff-Com:  0.500D+01 0.504D+01-0.772D+01 0.393D+01
 Coeff:      0.140D+01-0.173D+01 0.255D+00 0.826D+00-0.110D+01-0.490D+01
 Coeff:      0.500D+01 0.504D+01-0.772D+01 0.393D+01
 Gap=     0.468 Goal=   None    Shift=    0.000
 Gap=     0.420 Goal=   None    Shift=    0.000
 RMSDP=8.76D-04 MaxDP=3.07D-02 DE=-1.60D-06 OVMax= 9.61D-02

 Cycle  58  Pass 1  IDiag  1:
 E= -435.122276627272     Delta-E=        0.000025940670 Rises=F Damp=F
 DIIS: error= 2.13D-03 at cycle  58 NSaved=  11.
 NSaved=11 IEnMin=10 EnMin= -435.122302567943     IErMin= 5 ErrMin= 5.85D-06
 ErrMax= 2.13D-03  0.00D+00 EMaxC= 1.00D-01 BMatC= 1.27D-04 BMatP= 8.55D-10
 IDIUse=1 WtCom= 1.00D+00 WtEn= 0.00D+00
 Large coefficients: NSaved= 11 BigCof=   15.04 CofMax=   10.00 Det=-3.52D-13
 Inversion failed.  Reducing to 10 matrices.
 Large coefficients: NSaved= 10 BigCof=   13.43 CofMax=   10.00 Det=-3.86D-13
 Inversion failed.  Reducing to  9 matrices.
 Large coefficients: NSaved=  9 BigCof=   11.57 CofMax=   10.00 Det=-4.20D-13
 Inversion failed.  Reducing to  8 matrices.
 Coeff-Com:  0.925D+00-0.201D+01-0.334D+01 0.421D+01 0.691D+01-0.918D+01
 Coeff-Com:  0.346D+01 0.185D-01
 Coeff:      0.925D+00-0.201D+01-0.334D+01 0.421D+01 0.691D+01-0.918D+01
 Coeff:      0.346D+01 0.185D-01
 Gap=     0.469 Goal=   None    Shift=    0.000
 Gap=     0.420 Goal=   None    Shift=    0.000
 RMSDP=3.76D-04 MaxDP=1.34D-02 DE= 2.59D-05 OVMax= 4.12D-02

 Cycle  59  Pass 1  IDiag  1:
 E= -435.122296603491     Delta-E=       -0.000019976218 Rises=F Damp=F
 DIIS: error= 1.16D-03 at cycle  59 NSaved=   9.
 NSaved= 9 IEnMin= 7 EnMin= -435.122302567943     IErMin= 2 ErrMin= 5.85D-06
 ErrMax= 1.16D-03  0.00D+00 EMaxC= 1.00D-01 BMatC= 3.73D-05 BMatP= 8.55D-10
 IDIUse=1 WtCom= 1.00D+00 WtEn= 0.00D+00
 Coeff-Com:  0.692D+00-0.181D+01-0.435D+01 0.484D+01 0.675D+01-0.865D+01
 Coeff-Com:  0.424D+01 0.295D+00-0.102D+01
 Coeff:      0.692D+00-0.181D+01-0.435D+01 0.484D+01 0.675D+01-0.865D+01
 Coeff:      0.424D+01 0.295D+00-0.102D+01
 Gap=     0.468 Goal=   None    Shift=    0.000
 Gap=     0.420 Goal=   None    Shift=    0.000
 RMSDP=1.97D-04 MaxDP=6.91D-03 DE=-2.00D-05 OVMax= 2.15D-02

 Cycle  60  Pass 1  IDiag  1:
 E= -435.122284356009     Delta-E=        0.000012247482 Rises=F Damp=F
 DIIS: error= 1.82D-03 at cycle  60 NSaved=  10.
 NSaved=10 IEnMin= 7 EnMin= -435.122302567943     IErMin= 2 ErrMin= 5.85D-06
 ErrMax= 1.82D-03  0.00D+00 EMaxC= 1.00D-01 BMatC= 9.19D-05 BMatP= 8.55D-10
 IDIUse=1 WtCom= 1.00D+00 WtEn= 0.00D+00
 Large coefficients: NSaved= 10 BigCof=   10.28 CofMax=   10.00 Det=-4.26D-13
 Inversion failed.  Reducing to  9 matrices.
 Coeff-Com:  0.762D+00-0.165D+01-0.306D+01 0.344D+01 0.548D+01-0.805D+01
 Coeff-Com:  0.466D+01-0.101D+01 0.423D+00
 Coeff:      0.762D+00-0.165D+01-0.306D+01 0.344D+01 0.548D+01-0.805D+01
 Coeff:      0.466D+01-0.101D+01 0.423D+00
 Gap=     0.469 Goal=   None    Shift=    0.000
 Gap=     0.420 Goal=   None    Shift=    0.000
 RMSDP=1.11D-04 MaxDP=3.90D-03 DE= 1.22D-05 OVMax= 1.22D-02

 Cycle  61  Pass 1  IDiag  1:
 E= -435.122293618550     Delta-E=       -0.000009262541 Rises=F Damp=F
 DIIS: error= 1.35D-03 at cycle  61 NSaved=  10.
 NSaved=10 IEnMin= 7 EnMin= -435.122302567943     IErMin= 2 ErrMin= 5.85D-06
 ErrMax= 1.35D-03  0.00D+00 EMaxC= 1.00D-01 BMatC= 5.09D-05 BMatP= 8.55D-10
 IDIUse=1 WtCom= 1.00D+00 WtEn= 0.00D+00
 Coeff-Com:  0.766D+00-0.162D+01-0.238D+01 0.269D+01 0.416D+01-0.709D+01
 Coeff-Com:  0.499D+01 0.433D+00 0.870D+00-0.182D+01
 Coeff:      0.766D+00-0.162D+01-0.238D+01 0.269D+01 0.416D+01-0.709D+01
 Coeff:      0.499D+01 0.433D+00 0.870D+00-0.182D+01
 Gap=     0.469 Goal=   None    Shift=    0.000
 Gap=     0.420 Goal=   None    Shift=    0.000
 RMSDP=4.71D-05 MaxDP=1.70D-03 DE=-9.26D-06 OVMax= 5.17D-03

 Cycle  62  Pass 1  IDiag  1:
 E= -435.122293611408     Delta-E=        0.000000007142 Rises=F Damp=F
 DIIS: error= 1.36D-03 at cycle  62 NSaved=  11.
 NSaved=11 IEnMin= 7 EnMin= -435.122302567943     IErMin= 2 ErrMin= 5.85D-06
 ErrMax= 1.36D-03  0.00D+00 EMaxC= 1.00D-01 BMatC= 5.12D-05 BMatP= 8.55D-10
 IDIUse=1 WtCom= 1.00D+00 WtEn= 0.00D+00
 Large coefficients: NSaved= 11 BigCof=   10.90 CofMax=   10.00 Det=-3.69D-13
 Inversion failed.  Reducing to 10 matrices.
 Coeff-Com:  0.101D+01-0.192D+01-0.458D+01 0.500D+01 0.628D+01-0.749D+01
 Coeff-Com:  0.325D+01-0.111D+01-0.200D+01 0.256D+01
 Coeff:      0.101D+01-0.192D+01-0.458D+01 0.500D+01 0.628D+01-0.749D+01
 Coeff:      0.325D+01-0.111D+01-0.200D+01 0.256D+01
 Gap=     0.469 Goal=   None    Shift=    0.000
 Gap=     0.420 Goal=   None    Shift=    0.000
 RMSDP=5.03D-06 MaxDP=3.00D-04 DE= 7.14D-09 OVMax= 4.53D-04

 Cycle  63  Pass 1  IDiag  1:
 E= -435.122291449319     Delta-E=        0.000002162089 Rises=F Damp=F
 DIIS: error= 1.48D-03 at cycle  63 NSaved=  11.
 NSaved=11 IEnMin= 7 EnMin= -435.122302567943     IErMin= 2 ErrMin= 5.85D-06
 ErrMax= 1.48D-03  0.00D+00 EMaxC= 1.00D-01 BMatC= 6.06D-05 BMatP= 8.55D-10
 IDIUse=1 WtCom= 1.00D+00 WtEn= 0.00D+00
 Large coefficients: NSaved= 11 BigCof=   11.30 CofMax=   10.00 Det=-3.59D-13
 Inversion failed.  Reducing to 10 matrices.
 Coeff-Com:  0.924D+00-0.187D+01-0.453D+01 0.493D+01 0.724D+01-0.897D+01
 Coeff-Com:  0.400D+01-0.210D+01 0.106D+01 0.317D+00
 Coeff:      0.924D+00-0.187D+01-0.453D+01 0.493D+01 0.724D+01-0.897D+01
 Coeff:      0.400D+01-0.210D+01 0.106D+01 0.317D+00
 Gap=     0.469 Goal=   None    Shift=    0.000
 Gap=     0.420 Goal=   None    Shift=    0.000
 RMSDP=3.93D-05 MaxDP=1.43D-03 DE= 2.16D-06 OVMax= 4.31D-03

 Cycle  64  Pass 1  IDiag  1:
 E= -435.122290696742     Delta-E=        0.000000752577 Rises=F Damp=F
 DIIS: error= 1.51D-03 at cycle  64 NSaved=  11.
 NSaved=11 IEnMin= 7 EnMin= -435.122302567943     IErMin= 2 ErrMin= 5.85D-06
 ErrMax= 1.51D-03  0.00D+00 EMaxC= 1.00D-01 BMatC= 6.37D-05 BMatP= 8.55D-10
 IDIUse=1 WtCom= 1.00D+00 WtEn= 0.00D+00
 Large coefficients: NSaved= 11 BigCof=   15.91 CofMax=   10.00 Det=-2.23D-13
 Inversion failed.  Reducing to 10 matrices.
 Coeff-Com:  0.121D+01-0.224D+01-0.472D+01 0.538D+01 0.805D+01-0.974D+01
 Coeff-Com:  0.338D+01-0.844D+00 0.127D+01-0.741D+00
 Coeff:      0.121D+01-0.224D+01-0.472D+01 0.538D+01 0.805D+01-0.974D+01
 Coeff:      0.338D+01-0.844D+00 0.127D+01-0.741D+00
 Gap=     0.469 Goal=   None    Shift=    0.000
 Gap=     0.420 Goal=   None    Shift=    0.000
 RMSDP=6.11D-05 MaxDP=2.16D-03 DE= 7.53D-07 OVMax= 6.70D-03

 Cycle  65  Pass 1  IDiag  1:
 E= -435.122293231464     Delta-E=       -0.000002534722 Rises=F Damp=F
 DIIS: error= 1.37D-03 at cycle  65 NSaved=  11.
 NSaved=11 IEnMin= 7 EnMin= -435.122302567943     IErMin= 2 ErrMin= 5.85D-06
 ErrMax= 1.37D-03  0.00D+00 EMaxC= 1.00D-01 BMatC= 5.23D-05 BMatP= 8.55D-10
 IDIUse=1 WtCom= 1.00D+00 WtEn= 0.00D+00
 Large coefficients: NSaved= 11 BigCof=   11.05 CofMax=   10.00 Det=-2.47D-13
 Inversion failed.  Reducing to 10 matrices.
 Coeff-Com:  0.513D+00-0.124D+01-0.154D+01 0.185D+01 0.355D+01-0.690D+01
 Coeff-Com:  0.530D+01-0.228D+01-0.284D+00 0.202D+01
 Coeff:      0.513D+00-0.124D+01-0.154D+01 0.185D+01 0.355D+01-0.690D+01
 Coeff:      0.530D+01-0.228D+01-0.284D+00 0.202D+01
 Gap=     0.469 Goal=   None    Shift=    0.000
 Gap=     0.420 Goal=   None    Shift=    0.000
 RMSDP=2.79D-05 MaxDP=1.14D-03 DE=-2.53D-06 OVMax= 2.93D-03

 Cycle  66  Pass 1  IDiag  1:
 E= -435.122298420254     Delta-E=       -0.000005188790 Rises=F Damp=F
 DIIS: error= 1.03D-03 at cycle  66 NSaved=  11.
 NSaved=11 IEnMin= 7 EnMin= -435.122302567943     IErMin= 2 ErrMin= 5.85D-06
 ErrMax= 1.03D-03  0.00D+00 EMaxC= 1.00D-01 BMatC= 2.94D-05 BMatP= 8.55D-10
 IDIUse=1 WtCom= 1.00D+00 WtEn= 0.00D+00
 Coeff-Com:  0.377D+00-0.970D+00-0.514D+00 0.628D+00 0.183D+01-0.591D+01
 Coeff-Com:  0.631D+01-0.194D+01-0.530D+00 0.260D+01-0.891D+00
 Coeff:      0.377D+00-0.970D+00-0.514D+00 0.628D+00 0.183D+01-0.591D+01
 Coeff:      0.631D+01-0.194D+01-0.530D+00 0.260D+01-0.891D+00
 Gap=     0.470 Goal=   None    Shift=    0.000
 Gap=     0.420 Goal=   None    Shift=    0.000
 RMSDP=6.68D-06 MaxDP=2.82D-04 DE=-5.19D-06 OVMax= 6.98D-04

 Cycle  67  Pass 1  IDiag  1:
 E= -435.122299493269     Delta-E=       -0.000001073015 Rises=F Damp=F
 DIIS: error= 9.44D-04 at cycle  67 NSaved=  12.
 NSaved=12 IEnMin= 7 EnMin= -435.122302567943     IErMin= 2 ErrMin= 5.85D-06
 ErrMax= 9.44D-04  0.00D+00 EMaxC= 1.00D-01 BMatC= 2.47D-05 BMatP= 8.55D-10
 IDIUse=1 WtCom= 1.00D+00 WtEn= 0.00D+00
 Large coefficients: NSaved= 12 BigCof=   45.98 CofMax=   10.00 Det=-3.09D-14
 Inversion failed.  Reducing to 11 matrices.
 Large coefficients: NSaved= 11 BigCof=   25.75 CofMax=   10.00 Det=-4.57D-14
 Inversion failed.  Reducing to 10 matrices.
 Coeff-Com:  0.962D+00-0.165D+01-0.211D+01 0.262D+01 0.340D+01-0.522D+01
 Coeff-Com:  0.258D+01 0.192D+01-0.853D+01 0.702D+01
 Coeff:      0.962D+00-0.165D+01-0.211D+01 0.262D+01 0.340D+01-0.522D+01
 Coeff:      0.258D+01 0.192D+01-0.853D+01 0.702D+01
 Gap=     0.470 Goal=   None    Shift=    0.000
 Gap=     0.420 Goal=   None    Shift=    0.000
 RMSDP=5.80D-05 MaxDP=2.11D-03 DE=-1.07D-06 OVMax= 6.36D-03

 Cycle  68  Pass 1  IDiag  1:
 E= -435.122301083155     Delta-E=       -0.000001589886 Rises=F Damp=F
 DIIS: error= 8.09D-04 at cycle  68 NSaved=  11.
 NSaved=11 IEnMin= 7 EnMin= -435.122302567943     IErMin= 2 ErrMin= 5.85D-06
 ErrMax= 8.09D-04  0.00D+00 EMaxC= 1.00D-01 BMatC= 1.81D-05 BMatP= 8.55D-10
 IDIUse=1 WtCom= 1.00D+00 WtEn= 0.00D+00
 Large coefficients: NSaved= 11 BigCof=   39.59 CofMax=   10.00 Det=-1.64D-14
 Inversion failed.  Reducing to 10 matrices.
 Coeff-Com:  0.175D+01-0.274D+01-0.529D+01 0.580D+01 0.700D+01-0.799D+01
 Coeff-Com:  0.271D+01 0.411D+01-0.789D+01 0.352D+01
 Coeff:      0.175D+01-0.274D+01-0.529D+01 0.580D+01 0.700D+01-0.799D+01
 Coeff:      0.271D+01 0.411D+01-0.789D+01 0.352D+01
 Gap=     0.469 Goal=   None    Shift=    0.000
 Gap=     0.420 Goal=   None    Shift=    0.000
 RMSDP=2.22D-04 MaxDP=7.84D-03 DE=-1.59D-06 OVMax= 2.43D-02

 Cycle  69  Pass 1  IDiag  1:
 E= -435.122290156563     Delta-E=        0.000010926592 Rises=F Damp=F
 DIIS: error= 1.55D-03 at cycle  69 NSaved=  11.
 NSaved=11 IEnMin= 7 EnMin= -435.122302567943     IErMin= 2 ErrMin= 5.85D-06
 ErrMax= 1.55D-03  0.00D+00 EMaxC= 1.00D-01 BMatC= 6.71D-05 BMatP= 8.55D-10
 IDIUse=1 WtCom= 1.00D+00 WtEn= 0.00D+00
 Coeff-Com:  0.166D+01-0.268D+01-0.770D+01 0.766D+01 0.767D+01-0.756D+01
 Coeff-Com:  0.325D+01-0.499D+01 0.710D+00 0.189D+01 0.110D+01
 Coeff:      0.166D+01-0.268D+01-0.770D+01 0.766D+01 0.767D+01-0.756D+01
 Coeff:      0.325D+01-0.499D+01 0.710D+00 0.189D+01 0.110D+01
 Gap=     0.467 Goal=   None    Shift=    0.000
 Gap=     0.420 Goal=   None    Shift=    0.000
 RMSDP=2.43D-04 MaxDP=8.70D-03 DE= 1.09D-05 OVMax= 2.65D-02

 Cycle  70  Pass 1  IDiag  1:
 E= -435.122261901813     Delta-E=        0.000028254750 Rises=F Damp=F
 DIIS: error= 2.61D-03 at cycle  70 NSaved=  12.
 NSaved=12 IEnMin= 7 EnMin= -435.122302567943     IErMin= 2 ErrMin= 5.85D-06
 ErrMax= 2.61D-03  0.00D+00 EMaxC= 1.00D-01 BMatC= 1.92D-04 BMatP= 8.55D-10
 IDIUse=1 WtCom= 1.00D+00 WtEn= 0.00D+00
 Coeff-Com:  0.188D+01-0.217D+01-0.485D+01 0.453D+01 0.472D+01-0.204D+01
 Coeff-Com: -0.441D+01-0.725D+01 0.805D+01 0.607D+01-0.467D+01 0.113D+01
 Coeff:      0.188D+01-0.217D+01-0.485D+01 0.453D+01 0.472D+01-0.204D+01
 Coeff:     -0.441D+01-0.725D+01 0.805D+01 0.607D+01-0.467D+01 0.113D+01
 Gap=     0.467 Goal=   None    Shift=    0.000
 Gap=     0.420 Goal=   None    Shift=    0.000
 RMSDP=5.58D-04 MaxDP=2.11D-02 DE= 2.83D-05 OVMax= 6.12D-02

 Cycle  71  Pass 1  IDiag  1:
 E= -435.122267082085     Delta-E=       -0.000005180272 Rises=F Damp=F
 DIIS: error= 2.44D-03 at cycle  71 NSaved=  13.
 NSaved=13 IEnMin= 7 EnMin= -435.122302567943     IErMin= 2 ErrMin= 5.85D-06
 ErrMax= 2.44D-03  0.00D+00 EMaxC= 1.00D-01 BMatC= 1.71D-04 BMatP= 8.55D-10
 IDIUse=1 WtCom= 1.00D+00 WtEn= 0.00D+00
 Large coefficients: NSaved= 13 BigCof=   16.65 CofMax=   10.00 Det=-1.24D-14
 Inversion failed.  Reducing to 12 matrices.
 Large coefficients: NSaved= 12 BigCof=   34.61 CofMax=   10.00 Det=-2.04D-14
 Inversion failed.  Reducing to 11 matrices.
 Coeff-Com:  0.187D+01-0.277D+01-0.714D+01 0.686D+01 0.695D+01-0.722D+01
 Coeff-Com:  0.349D+01-0.529D+01 0.403D+01 0.239D+00-0.120D-01
 Coeff:      0.187D+01-0.277D+01-0.714D+01 0.686D+01 0.695D+01-0.722D+01
 Coeff:      0.349D+01-0.529D+01 0.403D+01 0.239D+00-0.120D-01
 Gap=     0.466 Goal=   None    Shift=    0.000
 Gap=     0.420 Goal=   None    Shift=    0.000
 RMSDP=4.07D-04 MaxDP=1.55D-02 DE=-5.18D-06 OVMax= 4.47D-02

 Cycle  72  Pass 1  IDiag  1:
 E= -435.122255866558     Delta-E=        0.000011215527 Rises=F Damp=F
 DIIS: error= 2.79D-03 at cycle  72 NSaved=  12.
 NSaved=12 IEnMin= 7 EnMin= -435.122302567943     IErMin= 2 ErrMin= 5.85D-06
 ErrMax= 2.79D-03  0.00D+00 EMaxC= 1.00D-01 BMatC= 2.19D-04 BMatP= 8.55D-10
 IDIUse=1 WtCom= 1.00D+00 WtEn= 0.00D+00
 Coeff-Com:  0.114D+01-0.165D+01 0.761D+00-0.153D+01-0.361D+01 0.109D+01
 Coeff-Com:  0.525D+01-0.445D+01 0.454D+01-0.352D+01-0.889D+00 0.388D+01
 Coeff:      0.114D+01-0.165D+01 0.761D+00-0.153D+01-0.361D+01 0.109D+01
 Coeff:      0.525D+01-0.445D+01 0.454D+01-0.352D+01-0.889D+00 0.388D+01
 Gap=     0.467 Goal=   None    Shift=    0.000
 Gap=     0.420 Goal=   None    Shift=    0.000
 RMSDP=2.40D-04 MaxDP=9.10D-03 DE= 1.12D-05 OVMax= 2.63D-02

 Cycle  73  Pass 1  IDiag  1:
 E= -435.122263422671     Delta-E=       -0.000007556113 Rises=F Damp=F
 DIIS: error= 2.56D-03 at cycle  73 NSaved=  13.
 NSaved=13 IEnMin= 7 EnMin= -435.122302567943     IErMin= 2 ErrMin= 5.85D-06
 ErrMax= 2.56D-03  0.00D+00 EMaxC= 1.00D-01 BMatC= 1.86D-04 BMatP= 8.55D-10
 IDIUse=1 WtCom= 1.00D+00 WtEn= 0.00D+00
 Coeff-Com:  0.235D+01-0.335D+01-0.382D+01 0.334D+01 0.157D+01-0.279D+01
 Coeff-Com:  0.459D+01-0.478D+01 0.420D+01-0.277D+01-0.194D+01 0.222D+01
 Coeff-Com:  0.218D+01
 Coeff:      0.235D+01-0.335D+01-0.382D+01 0.334D+01 0.157D+01-0.279D+01
 Coeff:      0.459D+01-0.478D+01 0.420D+01-0.277D+01-0.194D+01 0.222D+01
 Coeff:      0.218D+01
 Gap=     0.465 Goal=   None    Shift=    0.000
 Gap=     0.420 Goal=   None    Shift=    0.000
 RMSDP=4.49D-05 MaxDP=2.05D-03 DE=-7.56D-06 OVMax= 4.38D-03

 Cycle  74  Pass 1  IDiag  1:
 E= -435.122230339262     Delta-E=        0.000033083410 Rises=F Damp=F
 DIIS: error= 3.41D-03 at cycle  74 NSaved=  14.
 NSaved=14 IEnMin= 7 EnMin= -435.122302567943     IErMin= 2 ErrMin= 5.85D-06
 ErrMax= 3.41D-03  0.00D+00 EMaxC= 1.00D-01 BMatC= 3.31D-04 BMatP= 8.55D-10
 IDIUse=1 WtCom= 1.00D+00 WtEn= 0.00D+00
 Coeff-Com:  0.242D+01-0.339D+01-0.309D+01 0.241D+01 0.605D+00-0.224D+01
 Coeff-Com:  0.576D+01-0.573D+01 0.444D+01-0.349D+01-0.231D+01 0.322D+01
 Coeff-Com:  0.270D+01-0.309D+00
 Coeff:      0.242D+01-0.339D+01-0.309D+01 0.241D+01 0.605D+00-0.224D+01
 Coeff:      0.576D+01-0.573D+01 0.444D+01-0.349D+01-0.231D+01 0.322D+01
 Coeff:      0.270D+01-0.309D+00
 Gap=     0.465 Goal=   None    Shift=    0.000
 Gap=     0.420 Goal=   None    Shift=    0.000
 RMSDP=2.54D-06 MaxDP=9.53D-05 DE= 3.31D-05 OVMax= 2.69D-04

 Cycle  75  Pass 1  IDiag  1:
 E= -435.122229100755     Delta-E=        0.000001238507 Rises=F Damp=F
 DIIS: error= 3.43D-03 at cycle  75 NSaved=  15.
 NSaved=15 IEnMin= 7 EnMin= -435.122302567943     IErMin= 2 ErrMin= 5.85D-06
 ErrMax= 3.43D-03  0.00D+00 EMaxC= 1.00D-01 BMatC= 3.37D-04 BMatP= 8.55D-10
 IDIUse=1 WtCom= 1.00D+00 WtEn= 0.00D+00
 Large coefficients: NSaved= 15 BigCof=   59.60 CofMax=   10.00 Det=-7.30D-15
 Inversion failed.  Reducing to 14 matrices.
 Large coefficients: NSaved= 14 BigCof=   54.80 CofMax=   10.00 Det=-8.66D-15
 Inversion failed.  Reducing to 13 matrices.
 Large coefficients: NSaved= 13 BigCof=   59.15 CofMax=   10.00 Det=-8.80D-15
 Inversion failed.  Reducing to 12 matrices.
 Large coefficients: NSaved= 12 BigCof=   16.76 CofMax=   10.00 Det=-1.77D-14
 Inversion failed.  Reducing to 11 matrices.
 Coeff-Com:  0.176D+01-0.255D+01-0.517D+01 0.480D+01 0.456D+01-0.551D+01
 Coeff-Com:  0.371D+01-0.481D+01 0.421D+01-0.559D+01 0.560D+01
 Coeff:      0.176D+01-0.255D+01-0.517D+01 0.480D+01 0.456D+01-0.551D+01
 Coeff:      0.371D+01-0.481D+01 0.421D+01-0.559D+01 0.560D+01
 Gap=     0.466 Goal=   None    Shift=    0.000
 Gap=     0.420 Goal=   None    Shift=    0.000
 RMSDP=1.58D-04 MaxDP=5.86D-03 DE= 1.24D-06 OVMax= 1.72D-02

 Cycle  76  Pass 1  IDiag  1:
 E= -435.122256928378     Delta-E=       -0.000027827623 Rises=F Damp=F
 DIIS: error= 2.75D-03 at cycle  76 NSaved=  12.
 NSaved=12 IEnMin= 7 EnMin= -435.122302567943     IErMin= 2 ErrMin= 5.85D-06
 ErrMax= 2.75D-03  0.00D+00 EMaxC= 1.00D-01 BMatC= 2.14D-04 BMatP= 8.55D-10
 IDIUse=1 WtCom= 1.00D+00 WtEn= 0.00D+00
 Coeff-Com:  0.181D+01-0.269D+01-0.569D+01 0.563D+01 0.511D+01-0.548D+01
 Coeff-Com:  0.191D+01-0.325D+01 0.401D+01-0.146D+01 0.209D+01-0.988D+00
 Coeff:      0.181D+01-0.269D+01-0.569D+01 0.563D+01 0.511D+01-0.548D+01
 Coeff:      0.191D+01-0.325D+01 0.401D+01-0.146D+01 0.209D+01-0.988D+00
 Gap=     0.466 Goal=   None    Shift=    0.000
 Gap=     0.420 Goal=   None    Shift=    0.000
 RMSDP=5.85D-05 MaxDP=2.20D-03 DE=-2.78D-05 OVMax= 6.41D-03

 Cycle  77  Pass 1  IDiag  1:
 E= -435.122253717173     Delta-E=        0.000003211205 Rises=F Damp=F
 DIIS: error= 2.84D-03 at cycle  77 NSaved=  13.
 NSaved=13 IEnMin= 7 EnMin= -435.122302567943     IErMin= 2 ErrMin= 5.85D-06
 ErrMax= 2.84D-03  0.00D+00 EMaxC= 1.00D-01 BMatC= 2.29D-04 BMatP= 8.55D-10
 IDIUse=1 WtCom= 1.00D+00 WtEn= 0.00D+00
 Large coefficients: NSaved= 13 BigCof=  178.12 CofMax=   10.00 Det=-1.16D-15
 Inversion failed.  Reducing to 12 matrices.
 Coeff-Com:  0.185D+01-0.277D+01-0.624D+01 0.626D+01 0.569D+01-0.576D+01
 Coeff-Com:  0.142D+01-0.293D+01 0.390D+01 0.812D+00-0.980D+00-0.258D+00
 Coeff:      0.185D+01-0.277D+01-0.624D+01 0.626D+01 0.569D+01-0.576D+01
 Coeff:      0.142D+01-0.293D+01 0.390D+01 0.812D+00-0.980D+00-0.258D+00
 Gap=     0.466 Goal=   None    Shift=    0.000
 Gap=     0.420 Goal=   None    Shift=    0.000
 RMSDP=1.88D-06 MaxDP=9.57D-05 DE= 3.21D-06 OVMax= 1.53D-04

 Cycle  78  Pass 1  IDiag  1:
 E= -435.122251768050     Delta-E=        0.000001949123 Rises=F Damp=F
 DIIS: error= 2.89D-03 at cycle  78 NSaved=  13.
 NSaved=13 IEnMin= 7 EnMin= -435.122302567943     IErMin= 2 ErrMin= 5.85D-06
 ErrMax= 2.89D-03  0.00D+00 EMaxC= 1.00D-01 BMatC= 2.37D-04 BMatP= 8.55D-10
 IDIUse=1 WtCom= 1.00D+00 WtEn= 0.00D+00
 Large coefficients: NSaved= 13 BigCof=   17.24 CofMax=   10.00 Det=-1.07D-13
 Inversion failed.  Reducing to 12 matrices.
 Coeff-Com:  0.186D+01-0.278D+01-0.707D+01 0.690D+01 0.680D+01-0.679D+01
 Coeff-Com:  0.261D+01-0.460D+01 0.411D+01-0.392D+00-0.294D+01 0.330D+01
 Coeff:      0.186D+01-0.278D+01-0.707D+01 0.690D+01 0.680D+01-0.679D+01
 Coeff:      0.261D+01-0.460D+01 0.411D+01-0.392D+00-0.294D+01 0.330D+01
 Gap=     0.466 Goal=   None    Shift=    0.000
 Gap=     0.420 Goal=   None    Shift=    0.000
 RMSDP=1.16D-04 MaxDP=4.40D-03 DE= 1.95D-06 OVMax= 1.28D-02

 Cycle  79  Pass 1  IDiag  1:
 E= -435.122253338476     Delta-E=       -0.000001570426 Rises=F Damp=F
 DIIS: error= 2.85D-03 at cycle  79 NSaved=  13.
 NSaved=13 IEnMin= 7 EnMin= -435.122302567943     IErMin= 2 ErrMin= 5.85D-06
 ErrMax= 2.85D-03  0.00D+00 EMaxC= 1.00D-01 BMatC= 2.30D-04 BMatP= 8.55D-10
 IDIUse=1 WtCom= 1.00D+00 WtEn= 0.00D+00
 Large coefficients: NSaved= 13 BigCof=   49.82 CofMax=   10.00 Det=-9.54D-15
 Inversion failed.  Reducing to 12 matrices.
 Coeff-Com:  0.188D+01-0.282D+01-0.748D+01 0.731D+01 0.718D+01-0.703D+01
 Coeff-Com:  0.261D+01-0.468D+01 0.402D+01-0.123D+01 0.716D+00 0.537D+00
 Coeff:      0.188D+01-0.282D+01-0.748D+01 0.731D+01 0.718D+01-0.703D+01
 Coeff:      0.261D+01-0.468D+01 0.402D+01-0.123D+01 0.716D+00 0.537D+00
 Gap=     0.466 Goal=   None    Shift=    0.000
 Gap=     0.420 Goal=   None    Shift=    0.000
 RMSDP=1.66D-05 MaxDP=6.31D-04 DE=-1.57D-06 OVMax= 1.82D-03

 Cycle  80  Pass 1  IDiag  1:
 E= -435.122252333085     Delta-E=        0.000001005391 Rises=F Damp=F
 DIIS: error= 2.88D-03 at cycle  80 NSaved=  13.
 NSaved=13 IEnMin= 7 EnMin= -435.122302567943     IErMin= 2 ErrMin= 5.85D-06
 ErrMax= 2.88D-03  0.00D+00 EMaxC= 1.00D-01 BMatC= 2.34D-04 BMatP= 8.55D-10
 IDIUse=1 WtCom= 1.00D+00 WtEn= 0.00D+00
 Large coefficients: NSaved= 13 BigCof=  157.68 CofMax=   10.00 Det=-1.24D-15
 Inversion failed.  Reducing to 12 matrices.
 Coeff-Com:  0.182D+01-0.270D+01-0.711D+01 0.682D+01 0.688D+01-0.707D+01
 Coeff-Com:  0.326D+01-0.506D+01 0.401D+01 0.104D+01-0.584D+01 0.495D+01
 Coeff:      0.182D+01-0.270D+01-0.711D+01 0.682D+01 0.688D+01-0.707D+01
 Coeff:      0.326D+01-0.506D+01 0.401D+01 0.104D+01-0.584D+01 0.495D+01
 Gap=     0.466 Goal=   None    Shift=    0.000
 Gap=     0.420 Goal=   None    Shift=    0.000
 RMSDP=1.97D-05 MaxDP=7.27D-04 DE= 1.01D-06 OVMax= 2.15D-03

 Cycle  81  Pass 1  IDiag  1:
 E= -435.122255148587     Delta-E=       -0.000002815503 Rises=F Damp=F
 DIIS: error= 2.80D-03 at cycle  81 NSaved=  13.
 NSaved=13 IEnMin= 7 EnMin= -435.122302567943     IErMin= 2 ErrMin= 5.85D-06
 ErrMax= 2.80D-03  0.00D+00 EMaxC= 1.00D-01 BMatC= 2.22D-04 BMatP= 8.55D-10
 IDIUse=1 WtCom= 1.00D+00 WtEn= 0.00D+00
 Large coefficients: NSaved= 13 BigCof=  188.51 CofMax=   10.00 Det=-8.70D-16
 Inversion failed.  Reducing to 12 matrices.
 Coeff-Com:  0.187D+01-0.278D+01-0.728D+01 0.705D+01 0.695D+01-0.693D+01
 Coeff-Com:  0.289D+01-0.490D+01 0.406D+01-0.221D+00 0.131D+01-0.101D+01
 Coeff:      0.187D+01-0.278D+01-0.728D+01 0.705D+01 0.695D+01-0.693D+01
 Coeff:      0.289D+01-0.490D+01 0.406D+01-0.221D+00 0.131D+01-0.101D+01
 Gap=     0.466 Goal=   None    Shift=    0.000
 Gap=     0.420 Goal=   None    Shift=    0.000
 RMSDP=1.47D-05 MaxDP=5.44D-04 DE=-2.82D-06 OVMax= 1.60D-03

 Cycle  82  Pass 1  IDiag  1:
 E= -435.122253493799     Delta-E=        0.000001654789 Rises=F Damp=F
 DIIS: error= 2.85D-03 at cycle  82 NSaved=  13.
 NSaved=13 IEnMin= 7 EnMin= -435.122302567943     IErMin= 2 ErrMin= 5.85D-06
 ErrMax= 2.85D-03  0.00D+00 EMaxC= 1.00D-01 BMatC= 2.29D-04 BMatP= 8.55D-10
 IDIUse=1 WtCom= 1.00D+00 WtEn= 0.00D+00
 Large coefficients: NSaved= 13 BigCof=   69.49 CofMax=   10.00 Det=-1.08D-14
 Inversion failed.  Reducing to 12 matrices.
 Coeff-Com:  0.186D+01-0.275D+01-0.719D+01 0.690D+01 0.687D+01-0.703D+01
 Coeff-Com:  0.333D+01-0.519D+01 0.404D+01-0.261D+00 0.249D+00 0.181D+00
 Coeff:      0.186D+01-0.275D+01-0.719D+01 0.690D+01 0.687D+01-0.703D+01
 Coeff:      0.333D+01-0.519D+01 0.404D+01-0.261D+00 0.249D+00 0.181D+00
 Gap=     0.466 Goal=   None    Shift=    0.000
 Gap=     0.420 Goal=   None    Shift=    0.000
 RMSDP=1.72D-05 MaxDP=6.46D-04 DE= 1.65D-06 OVMax= 1.88D-03

 Cycle  83  Pass 1  IDiag  1:
 E= -435.122254009087     Delta-E=       -0.000000515289 Rises=F Damp=F
 DIIS: error= 2.84D-03 at cycle  83 NSaved=  13.
 NSaved=13 IEnMin= 7 EnMin= -435.122302567943     IErMin= 2 ErrMin= 5.85D-06
 ErrMax= 2.84D-03  0.00D+00 EMaxC= 1.00D-01 BMatC= 2.27D-04 BMatP= 8.55D-10
 IDIUse=1 WtCom= 1.00D+00 WtEn= 0.00D+00
 Large coefficients: NSaved= 13 BigCof=   54.47 CofMax=   10.00 Det=-7.06D-15
 Inversion failed.  Reducing to 12 matrices.
 Coeff-Com:  0.183D+01-0.271D+01-0.700D+01 0.667D+01 0.663D+01-0.694D+01
 Coeff-Com:  0.357D+01-0.528D+01 0.402D+01-0.860D-01-0.137D+01 0.166D+01
 Coeff:      0.183D+01-0.271D+01-0.700D+01 0.667D+01 0.663D+01-0.694D+01
 Coeff:      0.357D+01-0.528D+01 0.402D+01-0.860D-01-0.137D+01 0.166D+01
 Gap=     0.466 Goal=   None    Shift=    0.000
 Gap=     0.420 Goal=   None    Shift=    0.000
 RMSDP=1.76D-06 MaxDP=6.26D-05 DE=-5.15D-07 OVMax= 1.89D-04

 Cycle  84  Pass 1  IDiag  1:
 E= -435.122254508014     Delta-E=       -0.000000498927 Rises=F Damp=F
 DIIS: error= 2.82D-03 at cycle  84 NSaved=  13.
 NSaved=13 IEnMin= 7 EnMin= -435.122302567943     IErMin= 2 ErrMin= 5.85D-06
 ErrMax= 2.82D-03  0.00D+00 EMaxC= 1.00D-01 BMatC= 2.25D-04 BMatP= 8.55D-10
 IDIUse=1 WtCom= 1.00D+00 WtEn= 0.00D+00
 Large coefficients: NSaved= 13 BigCof=   49.49 CofMax=   10.00 Det=-1.02D-15
 Inversion failed.  Reducing to 12 matrices.
 Coeff-Com:  0.185D+01-0.274D+01-0.712D+01 0.682D+01 0.679D+01-0.700D+01
 Coeff-Com:  0.340D+01-0.521D+01 0.404D+01-0.240D+00-0.278D+00 0.694D+00
 Coeff:      0.185D+01-0.274D+01-0.712D+01 0.682D+01 0.679D+01-0.700D+01
 Coeff:      0.340D+01-0.521D+01 0.404D+01-0.240D+00-0.278D+00 0.694D+00
 Gap=     0.466 Goal=   None    Shift=    0.000
 Gap=     0.420 Goal=   None    Shift=    0.000
 RMSDP=1.89D-06 MaxDP=6.93D-05 DE=-4.99D-07 OVMax= 2.06D-04

 Cycle  85  Pass 1  IDiag  1:
 E= -435.122254186796     Delta-E=        0.000000321218 Rises=F Damp=F
 DIIS: error= 2.83D-03 at cycle  85 NSaved=  13.
 NSaved=13 IEnMin= 7 EnMin= -435.122302567943     IErMin= 2 ErrMin= 5.85D-06
 ErrMax= 2.83D-03  0.00D+00 EMaxC= 1.00D-01 BMatC= 2.26D-04 BMatP= 8.55D-10
 IDIUse=1 WtCom= 1.00D+00 WtEn= 0.00D+00
 Large coefficients: NSaved= 13 BigCof=   25.17 CofMax=   10.00 Det=-1.83D-15
 Inversion failed.  Reducing to 12 matrices.
[...]
     0                            6                               5            4          6   0                                  5   
     4                            0                               2            0          8   1                                  2   
 
     X                            X                               X            X          X   X                                  X   
     X                            X                               X            X                                                     
     X                            X                               X            X                                                     
     X                            X                               X            X                                                     
     X                            X                                                                                                  
     X                            X                                                                                                  
     X                            X                                                                                                  
     X                            X                                                                                                  
     X                            X                                                                                                  
     X                            X                                                                                                  
     X                            X                                                                                                  
     X                            X                                                                                                  
     X                            X                                                                                                  
     X                            X                                                                                                  
     X                                                                                                                               
     X                                                                                                                               
     X                                                                                                                               
     X                                                                                                                               
     X                                                                                                                               
     X                                                                                                                               
 
 
                                                          Distorted Ethanol
                                                            Raman Spectrum
 
     2                            1                               1                                                                  
     0                            5                               0            8          6   6                                      
     0                            6                               5            4          6   0                                  5   
     4                            0                               2            0          8   1                                  2   
 
     X                            X                               X            X          X   X                                  X   
     X                            X                               X            X          X   X                                      
                                  X                               X            X          X   X                                      
                                  X                               X                                                                  
                                  X                               X                                                                  
                                                                  X                                                                  
                                                                  X                                                                  
                                                                  X                                                                  
                                                                  X                                                                  
                                                                  X                                                                  
                                                                  X                                                                  
                                                                  X                                                                  
                                                                  X                                                                  
                                                                  X                                                                  
                                                                  X                                                                  
                                                                  X                                                                  
                                                                  X                                                                  
                                                                  X                                                                  
                                                                  X                                                                  
                                                                  X                                                                  
 
 Forces in standard orientation:
 -------------------------------------------------------------------
 Center     Atomic                   Forces (Hartrees/Bohr)
 Number     Number              X              Y              Z
 -------------------------------------------------------------------
      1        6           0.161038324    0.030350749    0.130209737
      2        9          -0.065086502   -0.010744129   -0.057413765
      3        9          -0.056093605    0.017227753   -0.034058349
      4        9          -0.000001484    0.000000016   -0.000000008
      5        9          -0.039856733   -0.036834388   -0.038737616
 -------------------------------------------------------------------
 ***** Axes restored to original set *****
 Rotating derivatives, DoTrsp=F IDiff=-2 LEDeriv=    772 LFDPrp=       0 LDFDPr=       0.
 -------------------------------------------------------------------
 Center     Atomic                   Forces (Hartrees/Bohr)
 Number     Number              X              Y              Z
 -------------------------------------------------------------------
      1        6           0.112100330   -0.173822872    0.032065723
      2        9          -0.049322984    0.071491845   -0.010207294
      3        9          -0.019588719    0.063946375    0.011419384
      4        9           0.000000182    0.000001429   -0.000000356
      5        9          -0.043188809    0.038383223   -0.033277458
 -------------------------------------------------------------------
 Cartesian Forces:  Max     0.173822872 RMS     0.063511841
 Z-matrix is all fixed cartesians, so copy forces.
 Force constants in Cartesian coordinates: 
                1             2             3             4             5 
      1  0.465754D+00
      2  0.310127D+00  0.878953D+00
      3  0.218243D+00  0.237084D+00  0.105322D+01
      4 -0.116594D+00  0.214885D-01 -0.184037D-01  0.652661D-01
      5 -0.382989D-02 -0.234124D+00  0.824549D-01  0.590603D-02  0.335942D+00
      6 -0.136573D-03  0.681610D-01 -0.168694D+00  0.321409D-01 -0.146153D+00
      7 -0.262841D+00 -0.310281D+00 -0.142578D+00  0.204387D-01 -0.176819D-01
      8 -0.283418D+00 -0.523563D+00 -0.197155D+00 -0.397797D-01 -0.103202D+00
      9 -0.135823D+00 -0.197670D+00 -0.189400D+00  0.378227D-02  0.180152D-01
     10  0.000000D+00  0.000000D+00  0.000000D+00  0.000000D+00  0.000000D+00
     11  0.000000D+00  0.000000D+00  0.000000D+00  0.000000D+00  0.000000D+00
     12  0.000000D+00  0.000000D+00  0.000000D+00  0.000000D+00  0.000000D+00
     13 -0.863195D-01 -0.213338D-01 -0.572613D-01  0.308889D-01  0.156056D-01
     14 -0.228790D-01 -0.121266D+00 -0.122383D+00  0.123851D-01  0.138419D-02
     15 -0.822834D-01 -0.107575D+00 -0.695124D+00 -0.175195D-01  0.456825D-01
                6             7             8             9            10 
      6  0.240205D+00
      7 -0.442480D-02  0.232142D+00
      8  0.588410D-02  0.349154D+00  0.632813D+00
      9  0.307117D-01  0.172071D+00  0.241063D+00  0.199005D+00
     10  0.000000D+00  0.000000D+00  0.000000D+00  0.000000D+00  0.000000D+00
     11  0.000000D+00  0.000000D+00  0.000000D+00  0.000000D+00  0.000000D+00
     12  0.000000D+00  0.000000D+00  0.000000D+00  0.000000D+00  0.000000D+00
     13 -0.275795D-01  0.102599D-01 -0.259566D-01 -0.400305D-01  0.000000D+00
     14  0.721075D-01 -0.211910D-01 -0.604773D-02 -0.614082D-01  0.000000D+00
     15 -0.102222D+00 -0.250685D-01 -0.497917D-01 -0.403170D-01  0.000000D+00
               11            12            13            14            15 
     11  0.000000D+00
     12  0.000000D+00  0.000000D+00
     13  0.000000D+00  0.000000D+00  0.451707D-01
     14  0.000000D+00  0.000000D+00  0.316848D-01  0.125930D+00
     15  0.000000D+00  0.000000D+00  0.124871D+00  0.111684D+00  0.837663D+00
 Final forces over variables, Energy=-4.35122306D+02:
  1.12100330D-01-4.93229844D-02-1.95887187D-02 1.81837142D-07
 -4.31888086D-02-1.73822872D-01 7.14918449D-02 6.39463755D-02
  1.42924694D-06 3.83832226D-02 3.20657233D-02-1.02072939D-02
  1.14193841D-02-3.55640750D-07-3.32774579D-02
 Leave Link  716 at Sat Mar  4 13:42:33 2017, MaxMem=   655360000 cpu:         0.2
 (Enter /mnt/software/gaussian/g09/l103.exe)

 GradGradGradGradGradGradGradGradGradGradGradGradGradGradGradGradGradGrad
 Berny optimization.
 Search for a local minimum.
 Step number   1 out of a maximum of    2
 All quantities printed in internal units (Hartrees-Bohrs-Radians)
 Second derivative matrix not updated -- analytic derivatives used.
 The second derivative matrix:
                          X1        Y1        Z1        X2        Y2
           X1           0.46575
           Y1           0.31013   0.87895
           Z1           0.21824   0.23708   1.05322
           X2          -0.11659   0.02149  -0.01840   0.06527
           Y2          -0.00383  -0.23412   0.08245   0.00591   0.33594
           Z2          -0.00014   0.06816  -0.16869   0.03214  -0.14615
           X3          -0.26284  -0.31028  -0.14258   0.02044  -0.01768
           Y3          -0.28342  -0.52356  -0.19716  -0.03978  -0.10320
           Z3          -0.13582  -0.19767  -0.18940   0.00378   0.01802
           X4           0.00000   0.00000   0.00000   0.00000   0.00000
           Y4           0.00000   0.00000   0.00000   0.00000   0.00000
           Z4           0.00000   0.00000   0.00000   0.00000   0.00000
           X5          -0.08632  -0.02133  -0.05726   0.03089   0.01561
           Y5          -0.02288  -0.12127  -0.12238   0.01239   0.00138
           Z5          -0.08228  -0.10757  -0.69512  -0.01752   0.04568
                          Z2        X3        Y3        Z3        X4
           Z2           0.24020
           X3          -0.00442   0.23214
           Y3           0.00588   0.34915   0.63281
           Z3           0.03071   0.17207   0.24106   0.19901
           X4           0.00000   0.00000   0.00000   0.00000   0.00000
           Y4           0.00000   0.00000   0.00000   0.00000   0.00000
           Z4           0.00000   0.00000   0.00000   0.00000   0.00000
           X5          -0.02758   0.01026  -0.02596  -0.04003   0.00000
           Y5           0.07211  -0.02119  -0.00605  -0.06141   0.00000
           Z5          -0.10222  -0.02507  -0.04979  -0.04032   0.00000
                          Y4        Z4        X5        Y5        Z5
           Y4           0.00000
           Z4           0.00000   0.00000
           X5           0.00000   0.00000   0.04517
           Y5           0.00000   0.00000   0.03168   0.12593
           Z5           0.00000   0.00000   0.12487   0.11168   0.83766
 ITU=  0
     Eigenvalues ---   -0.00536   0.00000   0.00190   0.24775   0.30692
     Eigenvalues ---    0.36453   0.70652   1.38192   2.09461
 Eigenvalue     1 is  -5.36D-03 should be greater than     0.000000 Eigenvector:
                          Y5        Z3        Z2        Y3        Y2
   1                    0.56406   0.49201  -0.44720  -0.29950  -0.28565
                          X2        Z5        Z4        X3        X5
   1                   -0.14602  -0.14434   0.12699   0.06747   0.04550
 Eigenvalue     2 is  -2.61D-07 should be greater than     0.000000 Eigenvector:
                          Y4        Y1        Y2        Y3        Y5
   1                    0.85036  -0.22281  -0.22281  -0.22281  -0.22281
                          Z4        X4        Z3        Z1        Z5
   1                   -0.22272   0.10879   0.05836   0.05836   0.05836
 Quadratic step=1.130D+01 exceeds max=3.000D-01 adjusted using Lamda=-3.205D-01.
 Angle between NR and scaled steps=  79.77 degrees.
 Angle between quadratic step and forces=  19.49 degrees.
 Linear search not attempted -- first point.
 TrRot= -0.005486  0.007266 -0.000446  0.360124 -0.000090 -0.359748
 Variable       Old X    -DE/DX   Delta X   Delta X   Delta X     New X
                                 (Linear)    (Quad)   (Total)
    X1       -1.26484   0.11210   0.00000   0.19920   0.18992  -1.07493
    Y1       10.61377  -0.17382   0.00000  -0.18144  -0.17452  10.43924
    Z1       -1.59458   0.03207   0.00000   0.01166   0.01145  -1.58313
    X2       -0.90322  -0.04932   0.00000  -0.04109  -0.04977  -0.95299
    Y2        8.48456   0.07149   0.00000   0.05146   0.05838   8.54294
    Z2       -0.34802  -0.01021   0.00000   0.00803   0.00778  -0.34024
    X3       -0.07797  -0.01959   0.00000  -0.06093  -0.07102  -0.14899
    Y3       12.32613   0.06395   0.00000   0.04894   0.05617  12.38231
    Z3       -0.75863   0.01142   0.00000   0.00490   0.00483  -0.75380
    X4       -4.42955   0.00000   0.00000  -0.00249  -0.00201  -4.43156
    Y4      -17.06942   0.00000   0.00000  -0.00523   0.00019 -17.06923
    Z4        5.56070   0.00000   0.00000   0.00190   0.00055   5.56125
    X5       -1.49199  -0.04319   0.00000  -0.05813  -0.06712  -1.55911
    Y5       10.11468   0.03838   0.00000   0.05298   0.05979  10.17447
    Z5       -3.80070  -0.03328   0.00000  -0.02436  -0.02461  -3.82531
         Item               Value     Threshold  Converged?
 Maximum Force            0.173823     0.000450     NO 
 RMS     Force            0.063512     0.000300     NO 
 Maximum Displacement     0.189917     0.001800     NO 
 RMS     Displacement     0.077250     0.001200     NO 
 Predicted change in Energy=-4.924339D-02
 GradGradGradGradGradGradGradGradGradGradGradGradGradGradGradGradGradGrad

 Leave Link  103 at Sat Mar  4 13:42:33 2017, MaxMem=   655360000 cpu:         0.1
 (Enter /mnt/software/gaussian/g09/l9999.exe)

 Test job not archived.
 1\1\GINC-TP-LINUX1\Freq\UHF\6-31G(d)\C1F4(1+,2)\THOMAS\04-Mar-2017\0\\
 #P UHF/6-31g* IOP(7/33=1) IOP(7/8=11) Freq\\Distorted Ethanol\\1,2\C,-
 0.669327,5.616563,-0.843813\F,-0.477965,4.489836,-0.184164\F,-0.041261
 ,6.522709,-0.401451\F,-2.344015,-9.032749,2.942594\F,-0.789527,5.35246
 ,-2.011245\\Version=ES64L-G09RevD.01\State=2-A\HF=-435.1223063\S2=0.75
 2673\S2-1=0.\S2A=0.750003\RMSD=7.715e-09\RMSF=6.351e-02\ZeroPoint=0.01
 54364\Thermal=0.0194881\Dipole=0.2972812,6.3848733,-1.5899364\DipoleDe
 riv=1.4173102,0.3362266,0.2830657,0.2979648,2.3180469,0.0248503,0.3059
 084,0.0043825,2.3631023,-0.1498229,0.0677054,-0.0904255,-0.0491138,-0.
 5149403,0.2272675,-0.0074129,0.1532594,-0.3483226,-0.1867508,-0.360357
 2,-0.1603671,-0.1815615,-0.5892151,-0.1449282,-0.1034401,-0.1499277,-0
 .2671268,0.0000655,-0.000023,0.000008,-0.0000198,-0.0001169,0.0000474,
 0.000007,0.0000453,0.0000542,-0.080802,-0.0435518,-0.0322811,-0.067269
 7,-0.2137746,-0.107237,-0.1950624,-0.0077595,-0.7477071\Polar=9.570178
 3,0.66737,12.8421915,1.1913912,-0.0570961,12.4001073\PolarDeriv=-2.938
 5653,0.6308611,-1.5920545,-0.1880548,0.1288747,-1.189042,0.1521354,-1.
 4482672,2.5542768,0.1196613,-0.3745749,0.7268426,0.0562696,0.0363093,-
 0.1800235,-1.1639331,0.9845602,0.7666272,0.7933124,-1.3756608,0.306300
 2,0.7655005,-0.099276,0.472681,-0.6480605,0.4371787,-5.176261,-0.31551
 28,1.4455371,-1.1849536,0.2519933,-0.2555119,1.1360957,0.5158499,-1.87
 26087,2.5033594,2.2125234,1.1795168,1.1748464,0.6696034,0.1245669,0.92
 71866,0.8268366,1.2809097,3.5957512,0.2573873,0.5874126,0.864853,0.449
 8626,0.30711,0.3476153,0.9199035,1.3124076,1.6798847,-0.0000473,0.0000
 232,0.0001152,-0.0000182,0.000052,-0.0000679,-0.0000733,0.0000607,0.00
 02747,-0.0000183,-0.0001474,-0.0000845,0.0000106,0.0000692,-0.0001155,
 -0.0000432,-0.0000542,0.0000724,-0.0672231,-0.4347403,0.1107927,-1.247
 0309,-0.1542175,-0.2107577,-0.3308382,-0.269882,-0.9740416,-0.0615174,
 -1.6582275,-0.4066575,-0.7581362,-0.0879766,-1.303572,-0.2717772,-0.42
 43049,-4.9499438\HyperPolar=-6.4963627,0.1833387,-7.7011887,6.4453455,
 -1.8509032,0.6438242,-4.6762491,-3.2630801,4.3943673,8.9038088\PG=C01 
 [X(C1F4)]\NImag=2\\0.46575449,0.31012656,0.87895302,0.21824299,0.23708
 411,1.05321819,-0.11659378,0.02148853,-0.01840366,0.06526612,-0.003829
 89,-0.23412410,0.08245488,0.00590603,0.33594228,-0.00013657,0.06816096
 ,-0.16869432,0.03214093,-0.14615267,0.24020485,-0.26284100,-0.31028106
 ,-0.14257793,0.02043873,-0.01768185,-0.00442480,0.23214232,-0.28341780
 ,-0.52356316,-0.19715542,-0.03977967,-0.10320224,0.00588410,0.34915396
 ,0.63281326,-0.13582293,-0.19766997,-0.18939990,0.00378227,0.01801519,
 0.03071170,0.17207114,0.24106295,0.19900517,-0.00000020,-0.00000022,-0
 .00000007,0.00000003,0.00000012,-0.00000006,0.00000007,0.00000012,0.00
 000005,0.00000011,0.00000008,0.00000048,-0.00000018,0.00000002,-0.0000
 0013,0.00000006,-0.00000007,-0.00000013,0.,-0.00000003,-0.00000019,-0.
 00000012,-0.00000032,-0.00000010,0.,0.00000011,-0.00000004,0.00000008,
 0.00000012,0.00000004,0.00000005,0.00000006,0.00000006,-0.08631951,-0.
 02133381,-0.05726133,0.03088890,0.01560560,-0.02757949,0.01025988,-0.0
 2595661,-0.04003053,-0.00000002,0.,0.,0.04517074,-0.02287896,-0.121266
 24,-0.12238339,0.01238509,0.00138419,0.07210755,-0.02119098,-0.0060477
 3,-0.06140816,0.00000002,-0.00000004,0.00000003,0.03168482,0.12592982,
 -0.08228337,-0.10757478,-0.69512387,-0.01751955,0.04568249,-0.10222218
 ,-0.02506848,-0.04979175,-0.04031701,0.00000004,0.00000006,0.00000004,
 0.12487135,0.11168398,0.83766302\\-0.11210033,0.17382287,-0.03206572,0
 .04932298,-0.07149184,0.01020729,0.01958872,-0.06394638,-0.01141938,-0
 .00000018,-0.00000143,0.00000036,0.04318881,-0.03838322,0.03327746\\\@


 ONE OF THE BENEFITS OF A COLLEGE EDUCATION
 IS TO SHOW THE BOY ITS LITTLE AVAIL 
                                    EMERSON IN 'CULTURE'
 Job cpu time:       0 days  0 hours  0 minutes 29.1 seconds.
 File lengths (MBytes):  RWF=     12 Int=      0 D2E=      0 Chk=      2 Scr=      1
 Normal termination of Gaussian 09 at Sat Mar  4 13:42:33 2017.
