 Entering Gaussian System, Link 0=g09
 Input=/home/thomas/cf4/DD-vMCG/dd_data/gwp14_V1_dd_data.com
 Output=/home/thomas/cf4/DD-vMCG/dd_data/gwp14_V1_dd_data.log
 Initial command:
 /mnt/software/gaussian/g09/l1.exe "/scratch/Gau-31641.inp" -scrdir="/scratch/"
 Entering Link 1 = /mnt/software/gaussian/g09/l1.exe PID=     31643.
  
 Copyright (c) 1988,1990,1992,1993,1995,1998,2003,2009,2013,
            Gaussian, Inc.  All Rights Reserved.
  
 This is part of the Gaussian(R) 09 program.  It is based on
 the Gaussian(R) 03 system (copyright 2003, Gaussian, Inc.),
 the Gaussian(R) 98 system (copyright 1998, Gaussian, Inc.),
 the Gaussian(R) 94 system (copyright 1995, Gaussian, Inc.),
 the Gaussian 92(TM) system (copyright 1992, Gaussian, Inc.),
 the Gaussian 90(TM) system (copyright 1990, Gaussian, Inc.),
 the Gaussian 88(TM) system (copyright 1988, Gaussian, Inc.),
 the Gaussian 86(TM) system (copyright 1986, Carnegie Mellon
 University), and the Gaussian 82(TM) system (copyright 1983,
 Carnegie Mellon University). Gaussian is a federally registered
 trademark of Gaussian, Inc.
  
 This software contains proprietary and confidential information,
 including trade secrets, belonging to Gaussian, Inc.
  
 This software is provided under written license and may be
 used, copied, transmitted, or stored only in accord with that
 written license.
  
 The following legend is applicable only to US Government
 contracts under FAR:
  
                    RESTRICTED RIGHTS LEGEND
  
 Use, reproduction and disclosure by the US Government is
 subject to restrictions as set forth in subparagraphs (a)
 and (c) of the Commercial Computer Software - Restricted
 Rights clause in FAR 52.227-19.
  
 Gaussian, Inc.
 340 Quinnipiac St., Bldg. 40, Wallingford CT 06492
  
  
 ---------------------------------------------------------------
 Warning -- This program may not be used in any manner that
 competes with the business of Gaussian, Inc. or will provide
 assistance to any competitor of Gaussian, Inc.  The licensee
 of this program is prohibited from giving any competitor of
 Gaussian, Inc. access to this program.  By using this program,
 the user acknowledges that Gaussian, Inc. is engaged in the
 business of creating and licensing software in the field of
 computational chemistry and represents and warrants to the
 licensee that it is not a competitor of Gaussian, Inc. and that
 it will not use this program in any manner prohibited above.
 ---------------------------------------------------------------
  

 Cite this work as:
 Gaussian 09, Revision D.01,
 M. J. Frisch, G. W. Trucks, H. B. Schlegel, G. E. Scuseria, 
 M. A. Robb, J. R. Cheeseman, G. Scalmani, V. Barone, B. Mennucci, 
 G. A. Petersson, H. Nakatsuji, M. Caricato, X. Li, H. P. Hratchian, 
 A. F. Izmaylov, J. Bloino, G. Zheng, J. L. Sonnenberg, M. Hada, 
 M. Ehara, K. Toyota, R. Fukuda, J. Hasegawa, M. Ishida, T. Nakajima, 
 Y. Honda, O. Kitao, H. Nakai, T. Vreven, J. A. Montgomery, Jr., 
 J. E. Peralta, F. Ogliaro, M. Bearpark, J. J. Heyd, E. Brothers, 
 K. N. Kudin, V. N. Staroverov, T. Keith, R. Kobayashi, J. Normand, 
 K. Raghavachari, A. Rendell, J. C. Burant, S. S. Iyengar, J. Tomasi, 
 M. Cossi, N. Rega, J. M. Millam, M. Klene, J. E. Knox, J. B. Cross, 
 V. Bakken, C. Adamo, J. Jaramillo, R. Gomperts, R. E. Stratmann, 
 O. Yazyev, A. J. Austin, R. Cammi, C. Pomelli, J. W. Ochterski, 
 R. L. Martin, K. Morokuma, V. G. Zakrzewski, G. A. Voth, 
 P. Salvador, J. J. Dannenberg, S. Dapprich, A. D. Daniels, 
 O. Farkas, J. B. Foresman, J. V. Ortiz, J. Cioslowski, 
 and D. J. Fox, Gaussian, Inc., Wallingford CT, 2013.
 
 ******************************************
 Gaussian 09:  ES64L-G09RevD.01 24-Apr-2013
                 4-Mar-2017 
 ******************************************
 %mem=5000MB
 %Nprocshared=6
 Will use up to    6 processors via shared memory.
 %chk=gwp14_V1_dd_data.chk
 ------------------------------------------
 #P UHF/6-31g* IOP(7/33=1) IOP(7/8=11) Freq
 ------------------------------------------
 1/10=4,30=1,38=1/1,3;
 2/12=2,17=6,18=5,40=1/2;
 3/5=1,6=6,7=1,11=2,16=1,25=1,30=1,71=2,116=2,140=1/1,2,3;
 4//1;
 5/5=2,38=5,98=1/2;
 8/6=4,10=90,11=11/1;
 10/13=10,15=4/2;
 11/6=3,8=1,9=11,15=111,16=1/1,2,10;
 10/6=1/2;
 6/7=2,8=2,9=2,10=2,18=1,28=1/1;
 7/8=11,10=1,25=1,33=1/1,2,3,16;
 1/10=4,30=1/3;
 99//99;
 Leave Link    1 at Sat Mar  4 13:41:25 2017, MaxMem=   655360000 cpu:         0.2
 (Enter /mnt/software/gaussian/g09/l101.exe)
 -----------------
 Distorted Ethanol
 -----------------
 Symbolic Z-matrix:
 Charge =  1 Multiplicity = 2
 6                     0.15154   4.85112  -1.04489 
 9                     1.36902   4.60376  -0.96698 
 9                    -0.42556   5.1572   -0.08326 
 9                    -4.43099  -6.93959   3.93888 
 9                    -0.31728   5.05454  -2.12244 
 
 NAtoms=      5 NQM=        5 NQMF=       0 NMMI=      0 NMMIF=      0
                NMic=       0 NMicF=      0.
                    Isotopes and Nuclear Properties:
 (Nuclear quadrupole moments (NQMom) in fm**2, nuclear magnetic moments (NMagM)
  in nuclear magnetons)

  Atom         1           2           3           4           5
 IAtWgt=          12          19          19          19          19
 AtmWgt=  12.0000000  18.9984033  18.9984033  18.9984033  18.9984033
 NucSpn=           0           1           1           1           1
 AtZEff=   0.0000000   0.0000000   0.0000000   0.0000000   0.0000000
 NQMom=    0.0000000   0.0000000   0.0000000   0.0000000   0.0000000
 NMagM=    0.0000000   2.6288670   2.6288670   2.6288670   2.6288670
 AtZNuc=   6.0000000   9.0000000   9.0000000   9.0000000   9.0000000
 Leave Link  101 at Sat Mar  4 13:41:25 2017, MaxMem=   655360000 cpu:         0.3
 (Enter /mnt/software/gaussian/g09/l103.exe)

 GradGradGradGradGradGradGradGradGradGradGradGradGradGradGradGradGradGrad
 Berny optimization.
 Initialization pass.
 Trust Radius=3.00D-01 FncErr=1.00D-07 GrdErr=1.00D-07
 Number of steps in this run=      2 maximum allowed number of steps=      2.
 GradGradGradGradGradGradGradGradGradGradGradGradGradGradGradGradGradGrad

 Leave Link  103 at Sat Mar  4 13:41:25 2017, MaxMem=   655360000 cpu:         0.1
 (Enter /mnt/software/gaussian/g09/l202.exe)
                          Input orientation:                          
 ---------------------------------------------------------------------
 Center     Atomic      Atomic             Coordinates (Angstroms)
 Number     Number       Type             X           Y           Z
 ---------------------------------------------------------------------
      1          6           0        0.151538    4.851122   -1.044893
      2          9           0        1.369019    4.603755   -0.966982
      3          9           0       -0.425556    5.157199   -0.083255
      4          9           0       -4.430992   -6.939590    3.938881
      5          9           0       -0.317276    5.054544   -2.122436
 ---------------------------------------------------------------------
                    Distance matrix (angstroms):
                    1          2          3          4          5
     1  C    0.000000
     2  F    1.244797   0.000000
     3  F    1.162527   2.075518   0.000000
     4  F   13.596267  13.818699  13.362387   0.000000
     5  F    1.192588   2.093293   2.044632  14.054233   0.000000
 Stoichiometry    CF4(1+,2)
 Framework group  C1[X(CF4)]
 Deg. of freedom     9
 Full point group                 C1      NOp   1
 Largest Abelian subgroup         C1      NOp   1
 Largest concise Abelian subgroup C1      NOp   1
                         Standard orientation:                         
 ---------------------------------------------------------------------
 Center     Atomic      Atomic             Coordinates (Angstroms)
 Number     Number       Type             X           Y           Z
 ---------------------------------------------------------------------
      1          6           0       -2.849391   -0.022412   -0.002354
      2          9           0       -3.019267    1.198191   -0.177827
      3          9           0       -2.563503   -0.406605    1.056954
      4          9           0       10.746776   -0.000181   -0.049716
      5          9           0       -3.264412   -0.776464   -0.827841
 ---------------------------------------------------------------------
 Rotational constants (GHZ):      6.5831811      0.1787713      0.1783308
 Leave Link  202 at Sat Mar  4 13:41:25 2017, MaxMem=   655360000 cpu:         0.0
 (Enter /mnt/software/gaussian/g09/l301.exe)
 Standard basis: 6-31G(d) (6D, 7F)
 Ernie: Thresh=  0.10000D-02 Tol=  0.10000D-05 Strict=F.
 There are    75 symmetry adapted cartesian basis functions of A   symmetry.
 There are    75 symmetry adapted basis functions of A   symmetry.
    75 basis functions,   140 primitive gaussians,    75 cartesian basis functions
    21 alpha electrons       20 beta electrons
       nuclear repulsion energy       145.0509694803 Hartrees.
 IExCor=    0 DFT=F Ex=HF Corr=None ExCW=0 ScaHFX=  1.000000
 ScaDFX=  1.000000  1.000000  1.000000  1.000000 ScalE2=  1.000000  1.000000
 IRadAn=      0 IRanWt=     -1 IRanGd=            0 ICorTp=0 IEmpDi=  4
 NAtoms=    5 NActive=    5 NUniq=    5 SFac= 1.00D+00 NAtFMM=   60 NAOKFM=F Big=F
 Integral buffers will be    131072 words long.
 Raffenetti 2 integral format.
 Two-electron integral symmetry is turned on.
 Leave Link  301 at Sat Mar  4 13:41:25 2017, MaxMem=   655360000 cpu:         0.3
 (Enter /mnt/software/gaussian/g09/l302.exe)
 NPDir=0 NMtPBC=     1 NCelOv=     1 NCel=       1 NClECP=     1 NCelD=      1
         NCelK=      1 NCelE2=     1 NClLst=     1 CellRange=     0.0.
 One-electron integrals computed using PRISM.
 NBasis=    75 RedAO= T EigKep=  3.73D-03  NBF=    75
 NBsUse=    75 1.00D-06 EigRej= -1.00D+00 NBFU=    75
 Leave Link  302 at Sat Mar  4 13:41:25 2017, MaxMem=   655360000 cpu:         0.8
 (Enter /mnt/software/gaussian/g09/l303.exe)
 DipDrv:  MaxL=1.
 Leave Link  303 at Sat Mar  4 13:41:25 2017, MaxMem=   655360000 cpu:         0.1
 (Enter /mnt/software/gaussian/g09/l401.exe)
 ExpMin= 1.69D-01 ExpMax= 7.00D+03 ExpMxC= 1.05D+03 IAcc=1 IRadAn=         1 AccDes= 0.00D+00
 Harris functional with IExCor=  205 and IRadAn=       1 diagonalized for initial guess.
 HarFok:  IExCor=  205 AccDes= 0.00D+00 IRadAn=         1 IDoV= 1 UseB2=F ITyADJ=14
 ICtDFT=  3500011 ScaDFX=  1.000000  1.000000  1.000000  1.000000
 FoFCou: FMM=F IPFlag=           0 FMFlag=      100000 FMFlg1=           0
         NFxFlg=           0 DoJE=T BraDBF=F KetDBF=T FulRan=T
         wScrn=  0.000000 ICntrl=     500 IOpCl=  0 I1Cent=   200000004 NGrid=           0
         NMat0=    1 NMatS0=      1 NMatT0=    0 NMatD0=    1 NMtDS0=    0 NMtDT0=    0
 Petite list used in FoFCou.
 Harris En= -435.020845029750    
 JPrj=0 DoOrth=F DoCkMO=F.
 Initial guess <Sx>= 0.0000 <Sy>= 0.0000 <Sz>= 0.5000 <S**2>= 0.7500 S= 0.5000
 Leave Link  401 at Sat Mar  4 13:41:25 2017, MaxMem=   655360000 cpu:         0.8
 (Enter /mnt/software/gaussian/g09/l502.exe)
 UHF open shell SCF:
 Using DIIS extrapolation, IDIIS=  1040.
 Integral symmetry usage will be decided dynamically.
 Keep R1 and R2 ints in memory in canonical form, NReq=8999704.
 IVT=       36430 IEndB=       36430 NGot=   655360000 MDV=   647198221
 LenX=   647198221 LenY=   647192155
 Requested convergence on RMS density matrix=1.00D-08 within 128 cycles.
 Requested convergence on MAX density matrix=1.00D-06.
 Requested convergence on             energy=1.00D-06.
 No special actions if energy rises.
 FoFCou: FMM=F IPFlag=           0 FMFlag=           0 FMFlg1=           0
         NFxFlg=           0 DoJE=F BraDBF=F KetDBF=F FulRan=T
         wScrn=  0.000000 ICntrl=     600 IOpCl=  0 I1Cent=           0 NGrid=           0
         NMat0=    1 NMatS0=   2850 NMatT0=    0 NMatD0=    1 NMtDS0=    0 NMtDT0=    0
 Symmetry not used in FoFCou.

 Cycle   1  Pass 1  IDiag  1:
 E= -435.092677923567    
 DIIS: error= 7.71D-02 at cycle   1 NSaved=   1.
 NSaved= 1 IEnMin= 1 EnMin= -435.092677923567     IErMin= 1 ErrMin= 7.71D-02
 ErrMax= 7.71D-02  0.00D+00 EMaxC= 1.00D-01 BMatC= 9.58D-01 BMatP= 9.58D-01
 IDIUse=3 WtCom= 2.29D-01 WtEn= 7.71D-01
 Coeff-Com:  0.100D+01
 Coeff-En:   0.100D+01
 Coeff:      0.100D+01
 Gap=     0.608 Goal=   None    Shift=    0.000
 Gap=     0.788 Goal=   None    Shift=    0.000
 GapD=    0.608 DampG=2.000 DampE=0.500 DampFc=1.0000 IDamp=-1.
 RMSDP=3.79D-03 MaxDP=5.68D-02              OVMax= 4.10D-02

 Cycle   2  Pass 1  IDiag  1:
 E= -435.154861035012     Delta-E=       -0.062183111445 Rises=F Damp=F
 DIIS: error= 1.42D-02 at cycle   2 NSaved=   2.
 NSaved= 2 IEnMin= 2 EnMin= -435.154861035012     IErMin= 2 ErrMin= 1.42D-02
 ErrMax= 1.42D-02  0.00D+00 EMaxC= 1.00D-01 BMatC= 3.59D-02 BMatP= 9.58D-01
 IDIUse=3 WtCom= 8.58D-01 WtEn= 1.42D-01
 Coeff-Com:  0.434D-01 0.957D+00
 Coeff-En:   0.000D+00 0.100D+01
 Coeff:      0.372D-01 0.963D+00
 Gap=     0.564 Goal=   None    Shift=    0.000
 Gap=     0.517 Goal=   None    Shift=    0.000
 RMSDP=1.11D-03 MaxDP=1.98D-02 DE=-6.22D-02 OVMax= 3.76D-02

 Cycle   3  Pass 1  IDiag  1:
 E= -435.160537492778     Delta-E=       -0.005676457766 Rises=F Damp=F
 DIIS: error= 5.39D-03 at cycle   3 NSaved=   3.
 NSaved= 3 IEnMin= 3 EnMin= -435.160537492778     IErMin= 3 ErrMin= 5.39D-03
 ErrMax= 5.39D-03  0.00D+00 EMaxC= 1.00D-01 BMatC= 1.15D-02 BMatP= 3.59D-02
 IDIUse=3 WtCom= 9.46D-01 WtEn= 5.39D-02
 Coeff-Com: -0.254D-01 0.335D+00 0.691D+00
 Coeff-En:   0.000D+00 0.000D+00 0.100D+01
 Coeff:     -0.240D-01 0.317D+00 0.707D+00
 Gap=     0.557 Goal=   None    Shift=    0.000
 Gap=     0.509 Goal=   None    Shift=    0.000
 RMSDP=3.49D-04 MaxDP=7.71D-03 DE=-5.68D-03 OVMax= 6.89D-03

 Cycle   4  Pass 1  IDiag  1:
 E= -435.162239126299     Delta-E=       -0.001701633520 Rises=F Damp=F
 DIIS: error= 1.17D-03 at cycle   4 NSaved=   4.
 NSaved= 4 IEnMin= 4 EnMin= -435.162239126299     IErMin= 4 ErrMin= 1.17D-03
 ErrMax= 1.17D-03  0.00D+00 EMaxC= 1.00D-01 BMatC= 2.30D-04 BMatP= 1.15D-02
 IDIUse=3 WtCom= 9.88D-01 WtEn= 1.17D-02
 Coeff-Com: -0.205D-02-0.603D-01-0.628D-01 0.113D+01
 Coeff-En:   0.000D+00 0.000D+00 0.000D+00 0.100D+01
 Coeff:     -0.202D-02-0.596D-01-0.621D-01 0.112D+01
 Gap=     0.557 Goal=   None    Shift=    0.000
 Gap=     0.507 Goal=   None    Shift=    0.000
 RMSDP=1.16D-04 MaxDP=1.62D-03 DE=-1.70D-03 OVMax= 3.44D-03

 Cycle   5  Pass 1  IDiag  1:
 E= -435.162333532557     Delta-E=       -0.000094406258 Rises=F Damp=F
 DIIS: error= 4.84D-04 at cycle   5 NSaved=   5.
 NSaved= 5 IEnMin= 5 EnMin= -435.162333532557     IErMin= 5 ErrMin= 4.84D-04
 ErrMax= 4.84D-04  0.00D+00 EMaxC= 1.00D-01 BMatC= 2.77D-05 BMatP= 2.30D-04
 IDIUse=3 WtCom= 9.95D-01 WtEn= 4.84D-03
 Coeff-Com:  0.298D-02-0.271D-01-0.676D-01-0.569D-01 0.115D+01
 Coeff-En:   0.000D+00 0.000D+00 0.000D+00 0.000D+00 0.100D+01
 Coeff:      0.297D-02-0.270D-01-0.672D-01-0.566D-01 0.115D+01
 Gap=     0.558 Goal=   None    Shift=    0.000
 Gap=     0.507 Goal=   None    Shift=    0.000
 RMSDP=4.17D-05 MaxDP=8.36D-04 DE=-9.44D-05 OVMax= 1.36D-03

 Cycle   6  Pass 1  IDiag  1:
 E= -435.162345400534     Delta-E=       -0.000011867977 Rises=F Damp=F
 DIIS: error= 1.27D-04 at cycle   6 NSaved=   6.
 NSaved= 6 IEnMin= 6 EnMin= -435.162345400534     IErMin= 6 ErrMin= 1.27D-04
 ErrMax= 1.27D-04  0.00D+00 EMaxC= 1.00D-01 BMatC= 2.02D-06 BMatP= 2.77D-05
 IDIUse=3 WtCom= 9.99D-01 WtEn= 1.27D-03
 Coeff-Com:  0.306D-04 0.442D-02 0.670D-02-0.711D-01-0.459D-01 0.111D+01
 Coeff-En:   0.000D+00 0.000D+00 0.000D+00 0.000D+00 0.000D+00 0.100D+01
 Coeff:      0.306D-04 0.442D-02 0.670D-02-0.710D-01-0.458D-01 0.111D+01
 Gap=     0.559 Goal=   None    Shift=    0.000
 Gap=     0.507 Goal=   None    Shift=    0.000
 RMSDP=1.06D-05 MaxDP=2.25D-04 DE=-1.19D-05 OVMax= 2.60D-04

 Cycle   7  Pass 1  IDiag  1:
 E= -435.162346099942     Delta-E=       -0.000000699408 Rises=F Damp=F
 DIIS: error= 4.13D-05 at cycle   7 NSaved=   7.
 NSaved= 7 IEnMin= 7 EnMin= -435.162346099942     IErMin= 7 ErrMin= 4.13D-05
 ErrMax= 4.13D-05  0.00D+00 EMaxC= 1.00D-01 BMatC= 3.62D-07 BMatP= 2.02D-06
 IDIUse=1 WtCom= 1.00D+00 WtEn= 0.00D+00
 Coeff-Com: -0.357D-03 0.450D-02 0.101D-01-0.114D-01-0.152D+00 0.310D+00
 Coeff-Com:  0.838D+00
 Coeff:     -0.357D-03 0.450D-02 0.101D-01-0.114D-01-0.152D+00 0.310D+00
 Coeff:      0.838D+00
 Gap=     0.559 Goal=   None    Shift=    0.000
 Gap=     0.507 Goal=   None    Shift=    0.000
 RMSDP=3.04D-06 MaxDP=6.60D-05 DE=-6.99D-07 OVMax= 6.53D-05

 Cycle   8  Pass 1  IDiag  1:
 E= -435.162346178827     Delta-E=       -0.000000078886 Rises=F Damp=F
 DIIS: error= 1.56D-05 at cycle   8 NSaved=   8.
 NSaved= 8 IEnMin= 8 EnMin= -435.162346178827     IErMin= 8 ErrMin= 1.56D-05
 ErrMax= 1.56D-05  0.00D+00 EMaxC= 1.00D-01 BMatC= 1.65D-08 BMatP= 3.62D-07
 IDIUse=1 WtCom= 1.00D+00 WtEn= 0.00D+00
 Coeff-Com:  0.746D-04-0.125D-02-0.268D-02 0.732D-02 0.335D-01-0.131D+00
 Coeff-Com: -0.187D+00 0.128D+01
 Coeff:      0.746D-04-0.125D-02-0.268D-02 0.732D-02 0.335D-01-0.131D+00
 Coeff:     -0.187D+00 0.128D+01
 Gap=     0.559 Goal=   None    Shift=    0.000
 Gap=     0.507 Goal=   None    Shift=    0.000
 RMSDP=1.10D-06 MaxDP=3.44D-05 DE=-7.89D-08 OVMax= 5.30D-05

 Cycle   9  Pass 1  IDiag  1:
 E= -435.162346187520     Delta-E=       -0.000000008693 Rises=F Damp=F
 DIIS: error= 9.60D-06 at cycle   9 NSaved=   9.
 NSaved= 9 IEnMin= 9 EnMin= -435.162346187520     IErMin= 9 ErrMin= 9.60D-06
 ErrMax= 9.60D-06  0.00D+00 EMaxC= 1.00D-01 BMatC= 3.06D-09 BMatP= 1.65D-08
 IDIUse=1 WtCom= 1.00D+00 WtEn= 0.00D+00
 Coeff-Com:  0.333D-04-0.467D-03-0.101D-02 0.149D-02 0.151D-01-0.358D-01
 Coeff-Com: -0.889D-01 0.124D+00 0.985D+00
 Coeff:      0.333D-04-0.467D-03-0.101D-02 0.149D-02 0.151D-01-0.358D-01
 Coeff:     -0.889D-01 0.124D+00 0.985D+00
 Gap=     0.559 Goal=   None    Shift=    0.000
 Gap=     0.507 Goal=   None    Shift=    0.000
 RMSDP=4.30D-07 MaxDP=1.60D-05 DE=-8.69D-09 OVMax= 3.86D-05

 Cycle  10  Pass 1  IDiag  1:
 E= -435.162346190114     Delta-E=       -0.000000002593 Rises=F Damp=F
 DIIS: error= 9.60D-06 at cycle  10 NSaved=  10.
 NSaved=10 IEnMin=10 EnMin= -435.162346190114     IErMin=10 ErrMin= 9.60D-06
 ErrMax= 9.60D-06  0.00D+00 EMaxC= 1.00D-01 BMatC= 1.82D-09 BMatP= 3.06D-09
 IDIUse=1 WtCom= 1.00D+00 WtEn= 0.00D+00
 Coeff-Com: -0.961D-05 0.157D-03 0.351D-03-0.880D-03-0.444D-02 0.156D-01
 Coeff-Com:  0.238D-01-0.120D+00-0.123D+00 0.121D+01
 Coeff:     -0.961D-05 0.157D-03 0.351D-03-0.880D-03-0.444D-02 0.156D-01
 Coeff:      0.238D-01-0.120D+00-0.123D+00 0.121D+01
 Gap=     0.559 Goal=   None    Shift=    0.000
 Gap=     0.507 Goal=   None    Shift=    0.000
 RMSDP=4.24D-07 MaxDP=1.96D-05 DE=-2.59D-09 OVMax= 4.59D-05

 Cycle  11  Pass 1  IDiag  1:
 E= -435.162346192724     Delta-E=       -0.000000002610 Rises=F Damp=F
 DIIS: error= 9.60D-06 at cycle  11 NSaved=  11.
 NSaved=11 IEnMin=11 EnMin= -435.162346192724     IErMin=11 ErrMin= 9.60D-06
 ErrMax= 9.60D-06  0.00D+00 EMaxC= 1.00D-01 BMatC= 1.74D-09 BMatP= 1.82D-09
 IDIUse=1 WtCom= 1.00D+00 WtEn= 0.00D+00
 Coeff-Com:  0.368D-06-0.880D-05-0.175D-04 0.852D-04 0.141D-03-0.101D-02
 Coeff-Com: -0.102D-02 0.149D-01-0.156D-01-0.194D+00 0.120D+01
 Coeff:      0.368D-06-0.880D-05-0.175D-04 0.852D-04 0.141D-03-0.101D-02
 Coeff:     -0.102D-02 0.149D-01-0.156D-01-0.194D+00 0.120D+01
 Gap=     0.559 Goal=   None    Shift=    0.000
 Gap=     0.507 Goal=   None    Shift=    0.000
 RMSDP=3.98D-07 MaxDP=1.97D-05 DE=-2.61D-09 OVMax= 4.38D-05

 Cycle  12  Pass 1  IDiag  1:
 E= -435.162346195183     Delta-E=       -0.000000002459 Rises=F Damp=F
 DIIS: error= 9.60D-06 at cycle  12 NSaved=  12.
 NSaved=12 IEnMin=12 EnMin= -435.162346195183     IErMin=12 ErrMin= 9.60D-06
 ErrMax= 9.60D-06  0.00D+00 EMaxC= 1.00D-01 BMatC= 1.74D-09 BMatP= 1.74D-09
 IDIUse=1 WtCom= 1.00D+00 WtEn= 0.00D+00
 Coeff-Com:  0.896D-06-0.157D-04-0.334D-04 0.998D-04 0.397D-03-0.157D-02
 Coeff-Com: -0.227D-02 0.145D-01 0.496D-02-0.160D+00 0.360D+00 0.784D+00
 Coeff:      0.896D-06-0.157D-04-0.334D-04 0.998D-04 0.397D-03-0.157D-02
 Coeff:     -0.227D-02 0.145D-01 0.496D-02-0.160D+00 0.360D+00 0.784D+00
 Gap=     0.559 Goal=   None    Shift=    0.000
 Gap=     0.507 Goal=   None    Shift=    0.000
 RMSDP=2.85D-07 MaxDP=1.42D-05 DE=-2.46D-09 OVMax= 3.13D-05

 Cycle  13  Pass 1  IDiag  1:
 E= -435.162346196944     Delta-E=       -0.000000001761 Rises=F Damp=F
 DIIS: error= 9.60D-06 at cycle  13 NSaved=  13.
 NSaved=13 IEnMin=13 EnMin= -435.162346196944     IErMin=13 ErrMin= 9.60D-06
 ErrMax= 9.60D-06  0.00D+00 EMaxC= 1.00D-01 BMatC= 1.74D-09 BMatP= 1.74D-09
 IDIUse=1 WtCom= 1.00D+00 WtEn= 0.00D+00
 Coeff-Com: -0.220D-06 0.392D-05 0.895D-05-0.268D-04-0.100D-03 0.415D-03
 Coeff-Com:  0.571D-03-0.421D-02 0.389D-04 0.498D-01-0.183D+00-0.150D+00
 Coeff-Com:  0.129D+01
 Coeff:     -0.220D-06 0.392D-05 0.895D-05-0.268D-04-0.100D-03 0.415D-03
 Coeff:      0.571D-03-0.421D-02 0.389D-04 0.498D-01-0.183D+00-0.150D+00
 Coeff:      0.129D+01
 Gap=     0.559 Goal=   None    Shift=    0.000
 Gap=     0.507 Goal=   None    Shift=    0.000
 RMSDP=4.39D-07 MaxDP=2.18D-05 DE=-1.76D-09 OVMax= 4.83D-05

 Cycle  14  Pass 1  IDiag  1:
 E= -435.162346199655     Delta-E=       -0.000000002711 Rises=F Damp=F
 DIIS: error= 9.60D-06 at cycle  14 NSaved=  14.
 NSaved=14 IEnMin=14 EnMin= -435.162346199655     IErMin=14 ErrMin= 9.60D-06
 ErrMax= 9.60D-06  0.00D+00 EMaxC= 1.00D-01 BMatC= 1.74D-09 BMatP= 1.74D-09
 IDIUse=1 WtCom= 1.00D+00 WtEn= 0.00D+00
 Coeff-Com:  0.244D-06-0.446D-05-0.115D-04 0.345D-04 0.121D-03-0.530D-03
 Coeff-Com: -0.716D-03 0.583D-02-0.197D-02-0.717D-01 0.358D+00 0.898D-01
 Coeff-Com: -0.365D+01 0.427D+01
 Coeff:      0.244D-06-0.446D-05-0.115D-04 0.345D-04 0.121D-03-0.530D-03
 Coeff:     -0.716D-03 0.583D-02-0.197D-02-0.717D-01 0.358D+00 0.898D-01
 Coeff:     -0.365D+01 0.427D+01
 Gap=     0.559 Goal=   None    Shift=    0.000
 Gap=     0.507 Goal=   None    Shift=    0.000
 RMSDP=1.56D-06 MaxDP=7.75D-05 DE=-2.71D-09 OVMax= 1.71D-04

 Cycle  15  Pass 1  IDiag  1:
 E= -435.162346209274     Delta-E=       -0.000000009619 Rises=F Damp=F
 DIIS: error= 9.60D-06 at cycle  15 NSaved=  15.
 NSaved=15 IEnMin=15 EnMin= -435.162346209274     IErMin=15 ErrMin= 9.60D-06
 ErrMax= 9.60D-06  0.00D+00 EMaxC= 1.00D-01 BMatC= 1.74D-09 BMatP= 1.74D-09
 IDIUse=1 WtCom= 1.00D+00 WtEn= 0.00D+00
 Large coefficients: NSaved= 15 BigCof=   34.81 CofMax=   10.00 Det=-8.15D-16
 Inversion failed.  Reducing to 14 matrices.
 Large coefficients: NSaved= 14 BigCof=   33.67 CofMax=   10.00 Det=-8.21D-16
 Inversion failed.  Reducing to 13 matrices.
 Large coefficients: NSaved= 13 BigCof=   33.66 CofMax=   10.00 Det=-8.21D-16
 Inversion failed.  Reducing to 12 matrices.
 Large coefficients: NSaved= 12 BigCof=   31.44 CofMax=   10.00 Det=-1.01D-15
 Inversion failed.  Reducing to 11 matrices.
 Large coefficients: NSaved= 11 BigCof=   31.16 CofMax=   10.00 Det=-1.01D-15
 Inversion failed.  Reducing to 10 matrices.
 Large coefficients: NSaved= 10 BigCof=   31.23 CofMax=   10.00 Det=-1.01D-15
 Inversion failed.  Reducing to  9 matrices.
 Large coefficients: NSaved=  9 BigCof=   29.50 CofMax=   10.00 Det=-1.06D-15
 Inversion failed.  Reducing to  8 matrices.
 Large coefficients: NSaved=  8 BigCof=   28.91 CofMax=   10.00 Det=-1.08D-15
 Inversion failed.  Reducing to  7 matrices.
 Large coefficients: NSaved=  7 BigCof=   28.93 CofMax=   10.00 Det=-1.09D-15
 Inversion failed.  Reducing to  6 matrices.
 Large coefficients: NSaved=  6 BigCof=   25.44 CofMax=   10.00 Det=-1.26D-15
 Inversion failed.  Reducing to  5 matrices.
 Large coefficients: NSaved=  5 BigCof=   25.14 CofMax=   10.00 Det=-1.26D-15
 Inversion failed.  Reducing to  4 matrices.
 Large coefficients: NSaved=  4 BigCof=   22.88 CofMax=   10.00 Det=-1.61D-15
 Inversion failed.  Reducing to  3 matrices.
 Large coefficients: NSaved=  3 BigCof=   18.29 CofMax=   10.00 Det=-2.06D-15
 Inversion failed.  Reducing to  2 matrices.
 Large coefficients: NSaved=  2 BigCof=   13.88 CofMax=   10.00 Det=-4.27D-15
 Coeff-Com: -0.129D+02 0.139D+02
 Coeff:     -0.129D+02 0.139D+02
 Gap=     0.559 Goal=   None    Shift=    0.000
 Gap=     0.507 Goal=   None    Shift=    0.000
 RMSDP=2.04D-05 MaxDP=1.01D-03 DE=-9.62D-09 OVMax= 2.24D-03

 Cycle  16  Pass 1  IDiag  1:
 E= -435.162346335104     Delta-E=       -0.000000125829 Rises=F Damp=F
 DIIS: error= 9.60D-06 at cycle  16 NSaved=   3.
 NSaved= 3 IEnMin= 3 EnMin= -435.162346335104     IErMin= 3 ErrMin= 9.60D-06
 ErrMax= 9.60D-06  0.00D+00 EMaxC= 1.00D-01 BMatC= 1.74D-09 BMatP= 1.74D-09
 IDIUse=1 WtCom= 1.00D+00 WtEn= 0.00D+00
 Large coefficients: NSaved=  3 BigCof=   12.75 CofMax=   10.00 Det=-3.49D-15
 Inversion failed.  Reducing to  2 matrices.
 Coeff-Com:  0.727D+00 0.273D+00
 Coeff:      0.727D+00 0.273D+00
 Gap=     0.559 Goal=   None    Shift=    0.000
 Gap=     0.507 Goal=   None    Shift=    0.000
 RMSDP=1.45D-05 MaxDP=7.22D-04 DE=-1.26D-07 OVMax= 1.59D-03

 Cycle  17  Pass 1  IDiag  1:
 E= -435.162346245609     Delta-E=        0.000000089495 Rises=F Damp=F
 DIIS: error= 9.60D-06 at cycle  17 NSaved=   3.
 NSaved= 3 IEnMin= 2 EnMin= -435.162346335104     IErMin= 2 ErrMin= 9.60D-06
 ErrMax= 9.60D-06  0.00D+00 EMaxC= 1.00D-01 BMatC= 1.74D-09 BMatP= 1.74D-09
 IDIUse=1 WtCom= 1.00D+00 WtEn= 0.00D+00
 Large coefficients: NSaved=  3 BigCof=   12.77 CofMax=   10.00 Det=-2.23D-14
 Inversion failed.  Reducing to  2 matrices.
 Coeff-Com:  0.283D+00 0.717D+00
 Coeff:      0.283D+00 0.717D+00
 Gap=     0.559 Goal=   None    Shift=    0.000
 Gap=     0.507 Goal=   None    Shift=    0.000
 RMSDP=4.42D-06 MaxDP=2.20D-04 DE= 8.95D-08 OVMax= 4.86D-04

 Cycle  18  Pass 1  IDiag  1:
 E= -435.162346272913     Delta-E=       -0.000000027304 Rises=F Damp=F
 DIIS: error= 9.60D-06 at cycle  18 NSaved=   3.
 NSaved= 3 IEnMin= 1 EnMin= -435.162346335104     IErMin= 1 ErrMin= 9.60D-06
 ErrMax= 9.60D-06  0.00D+00 EMaxC= 1.00D-01 BMatC= 1.74D-09 BMatP= 1.74D-09
 IDIUse=1 WtCom= 1.00D+00 WtEn= 0.00D+00
 Large coefficients: NSaved=  3 BigCof=   28.37 CofMax=   10.00 Det=-5.27D-15
 Inversion failed.  Reducing to  2 matrices.
 Coeff-Com: -0.543D+01 0.643D+01
 Coeff:     -0.543D+01 0.643D+01
 Gap=     0.559 Goal=   None    Shift=    0.000
 Gap=     0.507 Goal=   None    Shift=    0.000
 RMSDP=2.44D-05 MaxDP=1.21D-03 DE=-2.73D-08 OVMax= 2.68D-03

 Cycle  19  Pass 1  IDiag  1:
 E= -435.162346423184     Delta-E=       -0.000000150271 Rises=F Damp=F
 DIIS: error= 9.59D-06 at cycle  19 NSaved=   3.
 NSaved= 3 IEnMin= 3 EnMin= -435.162346423184     IErMin= 3 ErrMin= 9.59D-06
 ErrMax= 9.59D-06  0.00D+00 EMaxC= 1.00D-01 BMatC= 1.74D-09 BMatP= 1.74D-09
 IDIUse=1 WtCom= 1.00D+00 WtEn= 0.00D+00
 Large coefficients: NSaved=  3 BigCof=   17.15 CofMax=   10.00 Det=-6.18D-15
 Inversion failed.  Reducing to  2 matrices.
 Coeff-Com:  0.824D+00 0.176D+00
 Coeff:      0.824D+00 0.176D+00
 Gap=     0.559 Goal=   None    Shift=    0.000
 Gap=     0.507 Goal=   None    Shift=    0.000
 RMSDP=1.98D-05 MaxDP=9.83D-04 DE=-1.50D-07 OVMax= 2.17D-03

 Cycle  20  Pass 1  IDiag  1:
 E= -435.162346301278     Delta-E=        0.000000121906 Rises=F Damp=F
 DIIS: error= 9.60D-06 at cycle  20 NSaved=   3.
 NSaved= 3 IEnMin= 2 EnMin= -435.162346423184     IErMin= 2 ErrMin= 9.59D-06
 ErrMax= 9.60D-06  0.00D+00 EMaxC= 1.00D-01 BMatC= 1.74D-09 BMatP= 1.74D-09
 IDIUse=1 WtCom= 1.00D+00 WtEn= 0.00D+00
 Large coefficients: NSaved=  3 BigCof=   61.53 CofMax=   10.00 Det=-3.54D-15
 Inversion failed.  Reducing to  2 matrices.
 Coeff-Com:  0.189D+00 0.811D+00
 Coeff:      0.189D+00 0.811D+00
 Gap=     0.559 Goal=   None    Shift=    0.000
 Gap=     0.507 Goal=   None    Shift=    0.000
 RMSDP=4.06D-06 MaxDP=2.02D-04 DE= 1.22D-07 OVMax= 4.46D-04

 Cycle  21  Pass 1  IDiag  1:
 E= -435.162346326344     Delta-E=       -0.000000025066 Rises=F Damp=F
 DIIS: error= 9.60D-06 at cycle  21 NSaved=   3.
 NSaved= 3 IEnMin= 1 EnMin= -435.162346423184     IErMin= 1 ErrMin= 9.59D-06
 ErrMax= 9.60D-06  0.00D+00 EMaxC= 1.00D-01 BMatC= 1.74D-09 BMatP= 1.74D-09
 IDIUse=1 WtCom= 1.00D+00 WtEn= 0.00D+00
 Large coefficients: NSaved=  3 BigCof=   83.00 CofMax=   10.00 Det=-1.68D-15
 Inversion failed.  Reducing to  2 matrices.
 Large coefficients: NSaved=  2 BigCof=   14.91 CofMax=   10.00 Det=-1.27D-14
 Coeff-Com: -0.139D+02 0.149D+02
 Coeff:     -0.139D+02 0.149D+02
 Gap=     0.559 Goal=   None    Shift=    0.000
 Gap=     0.507 Goal=   None    Shift=    0.000
 RMSDP=5.68D-05 MaxDP=2.83D-03 DE=-2.51D-08 OVMax= 6.24D-03

 Cycle  22  Pass 1  IDiag  1:
 E= -435.162346676540     Delta-E=       -0.000000350196 Rises=F Damp=F
 DIIS: error= 9.58D-06 at cycle  22 NSaved=   3.
 NSaved= 3 IEnMin= 3 EnMin= -435.162346676540     IErMin= 3 ErrMin= 9.58D-06
 ErrMax= 9.58D-06  0.00D+00 EMaxC= 1.00D-01 BMatC= 1.90D-09 BMatP= 1.74D-09
 IDIUse=1 WtCom= 1.00D+00 WtEn= 0.00D+00
 Large coefficients: NSaved=  3 BigCof=  103.17 CofMax=   10.00 Det=-1.23D-15
 Inversion failed.  Reducing to  2 matrices.
 Coeff-Com:  0.966D+00 0.342D-01
 Coeff:      0.966D+00 0.342D-01
 Gap=     0.559 Goal=   None    Shift=    0.000
 Gap=     0.507 Goal=   None    Shift=    0.000
 RMSDP=5.45D-05 MaxDP=2.71D-03 DE=-3.50D-07 OVMax= 5.99D-03

 Cycle  23  Pass 1  IDiag  1:
 E= -435.162346340313     Delta-E=        0.000000336227 Rises=F Damp=F
 DIIS: error= 9.60D-06 at cycle  23 NSaved=   3.
 NSaved= 3 IEnMin= 2 EnMin= -435.162346676540     IErMin= 2 ErrMin= 9.58D-06
 ErrMax= 9.60D-06  0.00D+00 EMaxC= 1.00D-01 BMatC= 1.74D-09 BMatP= 1.74D-09
 IDIUse=1 WtCom= 1.00D+00 WtEn= 0.00D+00
 Large coefficients: NSaved=  3 BigCof=  254.03 CofMax=   10.00 Det=-5.82D-16
 Inversion failed.  Reducing to  2 matrices.
 Coeff-Com:  0.467D-01 0.953D+00
 Coeff:      0.467D-01 0.953D+00
 Gap=     0.559 Goal=   None    Shift=    0.000
 Gap=     0.507 Goal=   None    Shift=    0.000
 RMSDP=2.87D-06 MaxDP=1.43D-04 DE= 3.36D-07 OVMax= 3.15D-04

 Cycle  24  Pass 1  IDiag  1:
 E= -435.162346358011     Delta-E=       -0.000000017699 Rises=F Damp=F
 DIIS: error= 9.60D-06 at cycle  24 NSaved=   3.
 NSaved= 3 IEnMin= 1 EnMin= -435.162346676540     IErMin= 1 ErrMin= 9.58D-06
 ErrMax= 9.60D-06  0.00D+00 EMaxC= 1.00D-01 BMatC= 1.74D-09 BMatP= 1.74D-09
 IDIUse=1 WtCom= 1.00D+00 WtEn= 0.00D+00
 Large coefficients: NSaved=  3 BigCof= 1834.95 CofMax=   10.00 Det=-7.69D-17
 Inversion failed.  Reducing to  2 matrices.
 Large coefficients: NSaved=  2 BigCof=   10.17 CofMax=   10.00 Det=-8.30D-15
 Coeff-Com: -0.917D+01 0.102D+02
 Coeff:     -0.917D+01 0.102D+02
 Gap=     0.559 Goal=   None    Shift=    0.000
 Gap=     0.507 Goal=   None    Shift=    0.000
 RMSDP=2.66D-05 MaxDP=1.32D-03 DE=-1.77D-08 OVMax= 2.93D-03

 Cycle  25  Pass 1  IDiag  1:
 E= -435.162346522163     Delta-E=       -0.000000164152 Rises=F Damp=F
 DIIS: error= 9.59D-06 at cycle  25 NSaved=   3.
 NSaved= 3 IEnMin= 3 EnMin= -435.162346522163     IErMin= 3 ErrMin= 9.59D-06
 ErrMax= 9.59D-06  0.00D+00 EMaxC= 1.00D-01 BMatC= 1.74D-09 BMatP= 1.74D-09
 IDIUse=1 WtCom= 1.00D+00 WtEn= 0.00D+00
 Large coefficients: NSaved=  3 BigCof=  341.83 CofMax=   10.00 Det=-4.39D-16
 Inversion failed.  Reducing to  2 matrices.
 Coeff-Com:  0.751D+00 0.249D+00
 Coeff:      0.751D+00 0.249D+00
 Gap=     0.559 Goal=   None    Shift=    0.000
 Gap=     0.507 Goal=   None    Shift=    0.000
 RMSDP=1.97D-05 MaxDP=9.79D-04 DE=-1.64D-07 OVMax= 2.16D-03

 Cycle  26  Pass 1  IDiag  1:
 E= -435.162346400849     Delta-E=        0.000000121314 Rises=F Damp=F
 DIIS: error= 9.59D-06 at cycle  26 NSaved=   3.
 NSaved= 3 IEnMin= 2 EnMin= -435.162346522163     IErMin= 2 ErrMin= 9.59D-06
 ErrMax= 9.59D-06  0.00D+00 EMaxC= 1.00D-01 BMatC= 1.74D-09 BMatP= 1.74D-09
 IDIUse=1 WtCom= 1.00D+00 WtEn= 0.00D+00
 Large coefficients: NSaved=  3 BigCof=   83.21 CofMax=   10.00 Det=-3.25D-15
 Inversion failed.  Reducing to  2 matrices.
 Coeff-Com:  0.230D+00 0.770D+00
 Coeff:      0.230D+00 0.770D+00
 Gap=     0.559 Goal=   None    Shift=    0.000
 Gap=     0.507 Goal=   None    Shift=    0.000
 RMSDP=4.85D-06 MaxDP=2.41D-04 DE= 1.21D-07 OVMax= 5.33D-04

 Cycle  27  Pass 1  IDiag  1:
 E= -435.162346430739     Delta-E=       -0.000000029889 Rises=F Damp=F
 DIIS: error= 9.59D-06 at cycle  27 NSaved=   3.
 NSaved= 3 IEnMin= 1 EnMin= -435.162346522163     IErMin= 1 ErrMin= 9.59D-06
 ErrMax= 9.59D-06  0.00D+00 EMaxC= 1.00D-01 BMatC= 1.74D-09 BMatP= 1.74D-09
 IDIUse=1 WtCom= 1.00D+00 WtEn= 0.00D+00
 Large coefficients: NSaved=  3 BigCof= 1269.79 CofMax=   10.00 Det=-1.09D-16
 Inversion failed.  Reducing to  2 matrices.
 Coeff-Com: -0.371D+01 0.471D+01
 Coeff:     -0.371D+01 0.471D+01
 Gap=     0.559 Goal=   None    Shift=    0.000
 Gap=     0.507 Goal=   None    Shift=    0.000
 RMSDP=1.83D-05 MaxDP=9.09D-04 DE=-2.99D-08 OVMax= 2.01D-03

 Cycle  28  Pass 1  IDiag  1:
 E= -435.162346543442     Delta-E=       -0.000000112703 Rises=F Damp=F
 DIIS: error= 9.59D-06 at cycle  28 NSaved=   3.
 NSaved= 3 IEnMin= 3 EnMin= -435.162346543442     IErMin= 3 ErrMin= 9.59D-06
 ErrMax= 9.59D-06  0.00D+00 EMaxC= 1.00D-01 BMatC= 1.74D-09 BMatP= 1.74D-09
 IDIUse=1 WtCom= 1.00D+00 WtEn= 0.00D+00
 Large coefficients: NSaved=  3 BigCof=   36.33 CofMax=   10.00 Det=-2.10D-15
 Inversion failed.  Reducing to  2 matrices.
 Coeff-Com:  0.658D+00 0.342D+00
 Coeff:      0.658D+00 0.342D+00
 Gap=     0.559 Goal=   None    Shift=    0.000
 Gap=     0.507 Goal=   None    Shift=    0.000
 RMSDP=1.17D-05 MaxDP=5.82D-04 DE=-1.13D-07 OVMax= 1.29D-03

 Cycle  29  Pass 1  IDiag  1:
 E= -435.162346471297     Delta-E=        0.000000072144 Rises=F Damp=F
 DIIS: error= 9.59D-06 at cycle  29 NSaved=   3.
 NSaved= 3 IEnMin= 2 EnMin= -435.162346543442     IErMin= 2 ErrMin= 9.59D-06
 ErrMax= 9.59D-06  0.00D+00 EMaxC= 1.00D-01 BMatC= 1.73D-09 BMatP= 1.74D-09
 IDIUse=1 WtCom= 1.00D+00 WtEn= 0.00D+00
 Large coefficients: NSaved=  3 BigCof=  181.91 CofMax=   10.00 Det=-1.39D-15
 Inversion failed.  Reducing to  2 matrices.
 Coeff-Com:  0.259D+00 0.741D+00
 Coeff:      0.259D+00 0.741D+00
 Gap=     0.559 Goal=   None    Shift=    0.000
 Gap=     0.507 Goal=   None    Shift=    0.000
 RMSDP=3.35D-06 MaxDP=1.67D-04 DE= 7.21D-08 OVMax= 3.68D-04

 Cycle  30  Pass 1  IDiag  1:
 E= -435.162346491963     Delta-E=       -0.000000020666 Rises=F Damp=F
 DIIS: error= 9.59D-06 at cycle  30 NSaved=   3.
 NSaved= 3 IEnMin= 1 EnMin= -435.162346543442     IErMin= 1 ErrMin= 9.59D-06
 ErrMax= 9.59D-06  0.00D+00 EMaxC= 1.00D-01 BMatC= 1.73D-09 BMatP= 1.73D-09
 IDIUse=1 WtCom= 1.00D+00 WtEn= 0.00D+00
 Large coefficients: NSaved=  3 BigCof=   37.07 CofMax=   10.00 Det=-3.03D-15
 Inversion failed.  Reducing to  2 matrices.
 Coeff-Com: -0.409D+01 0.509D+01
 Coeff:     -0.409D+01 0.509D+01
 Gap=     0.559 Goal=   None    Shift=    0.000
 Gap=     0.507 Goal=   None    Shift=    0.000
 RMSDP=1.40D-05 MaxDP=6.98D-04 DE=-2.07D-08 OVMax= 1.54D-03

 Cycle  31  Pass 1  IDiag  1:
 E= -435.162346578488     Delta-E=       -0.000000086525 Rises=F Damp=F
 DIIS: error= 9.59D-06 at cycle  31 NSaved=   3.
 NSaved= 3 IEnMin= 3 EnMin= -435.162346578488     IErMin= 3 ErrMin= 9.59D-06
 ErrMax= 9.59D-06  0.00D+00 EMaxC= 1.00D-01 BMatC= 1.73D-09 BMatP= 1.73D-09
 IDIUse=1 WtCom= 1.00D+00 WtEn= 0.00D+00
 Coeff-Com: -0.734D+01 0.898D+01-0.639D+00
 Coeff:     -0.734D+01 0.898D+01-0.639D+00
 Gap=     0.559 Goal=   None    Shift=    0.000
 Gap=     0.507 Goal=   None    Shift=    0.000
 RMSDP=1.91D-06 MaxDP=9.52D-05 DE=-8.65D-08 OVMax= 2.10D-04

 Cycle  32  Pass 1  IDiag  1:
 E= -435.162346590275     Delta-E=       -0.000000011787 Rises=F Damp=F
 DIIS: error= 9.59D-06 at cycle  32 NSaved=   4.
 NSaved= 4 IEnMin= 4 EnMin= -435.162346590275     IErMin= 4 ErrMin= 9.59D-06
 ErrMax= 9.59D-06  0.00D+00 EMaxC= 1.00D-01 BMatC= 1.74D-09 BMatP= 1.73D-09
 IDIUse=1 WtCom= 1.00D+00 WtEn= 0.00D+00
 Large coefficients: NSaved=  4 BigCof=  574.72 CofMax=   10.00 Det=-5.00D-16
 Inversion failed.  Reducing to  3 matrices.
 Large coefficients: NSaved=  3 BigCof=   46.47 CofMax=   10.00 Det=-4.23D-15
 Inversion failed.  Reducing to  2 matrices.
 Coeff-Com:  0.208D+01-0.108D+01
 Coeff:      0.208D+01-0.108D+01
 Gap=     0.559 Goal=   None    Shift=    0.000
 Gap=     0.507 Goal=   None    Shift=    0.000
 RMSDP=3.66D-06 MaxDP=1.82D-04 DE=-1.18D-08 OVMax= 4.02D-04

 Cycle  33  Pass 1  IDiag  1:
 E= -435.162346567731     Delta-E=        0.000000022544 Rises=F Damp=F
 DIIS: error= 9.59D-06 at cycle  33 NSaved=   3.
 NSaved= 3 IEnMin= 2 EnMin= -435.162346590275     IErMin= 2 ErrMin= 9.59D-06
 ErrMax= 9.59D-06  0.00D+00 EMaxC= 1.00D-01 BMatC= 1.73D-09 BMatP= 1.73D-09
 IDIUse=1 WtCom= 1.00D+00 WtEn= 0.00D+00
 Coeff-Com: -0.136D+01 0.719D+00 0.164D+01
 Coeff:     -0.136D+01 0.719D+00 0.164D+01
 Gap=     0.559 Goal=   None    Shift=    0.000
 Gap=     0.507 Goal=   None    Shift=    0.000
 RMSDP=5.80D-07 MaxDP=2.88D-05 DE= 2.25D-08 OVMax= 6.37D-05

 Cycle  34  Pass 1  IDiag  1:
 E= -435.162346571305     Delta-E=       -0.000000003574 Rises=F Damp=F
 DIIS: error= 9.59D-06 at cycle  34 NSaved=   4.
 NSaved= 4 IEnMin= 2 EnMin= -435.162346590275     IErMin= 2 ErrMin= 9.59D-06
 ErrMax= 9.59D-06  0.00D+00 EMaxC= 1.00D-01 BMatC= 1.73D-09 BMatP= 1.73D-09
 IDIUse=1 WtCom= 1.00D+00 WtEn= 0.00D+00
 Large coefficients: NSaved=  4 BigCof=   14.07 CofMax=   10.00 Det=-3.77D-15
 Inversion failed.  Reducing to  3 matrices.
 Coeff-Com:  0.394D+00-0.447D+01 0.508D+01
 Coeff:      0.394D+00-0.447D+01 0.508D+01
 Gap=     0.559 Goal=   None    Shift=    0.000
 Gap=     0.507 Goal=   None    Shift=    0.000
 RMSDP=4.12D-06 MaxDP=2.05D-04 DE=-3.57D-09 OVMax= 4.53D-04

 Cycle  35  Pass 1  IDiag  1:
 E= -435.162346596725     Delta-E=       -0.000000025420 Rises=F Damp=F
 DIIS: error= 9.59D-06 at cycle  35 NSaved=   4.
 NSaved= 4 IEnMin= 4 EnMin= -435.162346596725     IErMin= 4 ErrMin= 9.59D-06
 ErrMax= 9.59D-06  0.00D+00 EMaxC= 1.00D-01 BMatC= 1.73D-09 BMatP= 1.73D-09
 IDIUse=1 WtCom= 1.00D+00 WtEn= 0.00D+00
 Large coefficients: NSaved=  4 BigCof=   21.06 CofMax=   10.00 Det=-4.39D-15
 Inversion failed.  Reducing to  3 matrices.
 Coeff-Com: -0.578D+00-0.511D+01 0.669D+01
 Coeff:     -0.578D+00-0.511D+01 0.669D+01
 Gap=     0.559 Goal=   None    Shift=    0.000
 Gap=     0.507 Goal=   None    Shift=    0.000
 RMSDP=2.20D-05 MaxDP=1.09D-03 DE=-2.54D-08 OVMax= 2.42D-03

 Cycle  36  Pass 1  IDiag  1:
 E= -435.162346732237     Delta-E=       -0.000000135512 Rises=F Damp=F
 DIIS: error= 9.58D-06 at cycle  36 NSaved=   4.
 NSaved= 4 IEnMin= 4 EnMin= -435.162346732237     IErMin= 4 ErrMin= 9.58D-06
 ErrMax= 9.58D-06  0.00D+00 EMaxC= 1.00D-01 BMatC= 1.73D-09 BMatP= 1.73D-09
 IDIUse=1 WtCom= 1.00D+00 WtEn= 0.00D+00
 Large coefficients: NSaved=  4 BigCof=   20.09 CofMax=   10.00 Det=-1.84D-14
 Inversion failed.  Reducing to  3 matrices.
 Large coefficients: NSaved=  3 BigCof=   15.77 CofMax=   10.00 Det=-6.23D-14
 Inversion failed.  Reducing to  2 matrices.
 Coeff-Com:  0.747D+00 0.253D+00
 Coeff:      0.747D+00 0.253D+00
 Gap=     0.559 Goal=   None    Shift=    0.000
 Gap=     0.507 Goal=   None    Shift=    0.000
 RMSDP=1.61D-05 MaxDP=8.00D-04 DE=-1.36D-07 OVMax= 1.77D-03

 Cycle  37  Pass 1  IDiag  1:
 E= -435.162346633055     Delta-E=        0.000000099182 Rises=F Damp=F
 DIIS: error= 9.59D-06 at cycle  37 NSaved=   3.
 NSaved= 3 IEnMin= 2 EnMin= -435.162346732237     IErMin= 2 ErrMin= 9.58D-06
 ErrMax= 9.59D-06  0.00D+00 EMaxC= 1.00D-01 BMatC= 1.73D-09 BMatP= 1.73D-09
 IDIUse=1 WtCom= 1.00D+00 WtEn= 0.00D+00
 Coeff-Com: -0.545D+01 0.133D+01 0.512D+01
 Coeff:     -0.545D+01 0.133D+01 0.512D+01
 Gap=     0.559 Goal=   None    Shift=    0.000
 Gap=     0.507 Goal=   None    Shift=    0.000
 RMSDP=5.39D-05 MaxDP=2.68D-03 DE= 9.92D-08 OVMax= 5.92D-03

 Cycle  38  Pass 1  IDiag  1:
 E= -435.162346964990     Delta-E=       -0.000000331936 Rises=F Damp=F
 DIIS: error= 9.57D-06 at cycle  38 NSaved=   4.
 NSaved= 4 IEnMin= 4 EnMin= -435.162346964990     IErMin= 4 ErrMin= 9.57D-06
 ErrMax= 9.57D-06  0.00D+00 EMaxC= 1.00D-01 BMatC= 1.84D-09 BMatP= 1.73D-09
 IDIUse=1 WtCom= 1.00D+00 WtEn= 0.00D+00
 Coeff-Com: -0.638D+01-0.707D+00 0.765D+01 0.440D+00
 Coeff:     -0.638D+01-0.707D+00 0.765D+01 0.440D+00
 Gap=     0.559 Goal=   None    Shift=    0.000
 Gap=     0.507 Goal=   None    Shift=    0.000
 RMSDP=3.62D-06 MaxDP=1.81D-04 DE=-3.32D-07 OVMax= 3.98D-04

 Cycle  39  Pass 1  IDiag  1:
 E= -435.162346942702     Delta-E=        0.000000022288 Rises=F Damp=F
 DIIS: error= 9.57D-06 at cycle  39 NSaved=   5.
 NSaved= 5 IEnMin= 4 EnMin= -435.162346964990     IErMin= 4 ErrMin= 9.57D-06
 ErrMax= 9.57D-06  0.00D+00 EMaxC= 1.00D-01 BMatC= 1.77D-09 BMatP= 1.73D-09
 IDIUse=1 WtCom= 1.00D+00 WtEn= 0.00D+00
 Large coefficients: NSaved=  5 BigCof=  362.21 CofMax=   10.00 Det=-2.38D-15
 Inversion failed.  Reducing to  4 matrices.
 Large coefficients: NSaved=  4 BigCof=  262.97 CofMax=   10.00 Det=-3.27D-15
 Inversion failed.  Reducing to  3 matrices.
 Coeff-Com: -0.125D+01-0.305D+01 0.530D+01
 Coeff:     -0.125D+01-0.305D+01 0.530D+01
 Gap=     0.559 Goal=   None    Shift=    0.000
 Gap=     0.507 Goal=   None    Shift=    0.000
 RMSDP=3.20D-05 MaxDP=1.59D-03 DE= 2.23D-08 OVMax= 3.51D-03

 Cycle  40  Pass 1  IDiag  1:
 E= -435.162347139297     Delta-E=       -0.000000196594 Rises=F Damp=F
 DIIS: error= 9.56D-06 at cycle  40 NSaved=   4.
 NSaved= 4 IEnMin= 4 EnMin= -435.162347139297     IErMin= 4 ErrMin= 9.56D-06
 ErrMax= 9.56D-06  0.00D+00 EMaxC= 1.00D-01 BMatC= 1.82D-09 BMatP= 1.73D-09
 IDIUse=1 WtCom= 1.00D+00 WtEn= 0.00D+00
 Coeff-Com:  0.184D+00-0.388D+01 0.118D+01 0.352D+01
 Coeff:      0.184D+00-0.388D+01 0.118D+01 0.352D+01
 Gap=     0.559 Goal=   None    Shift=    0.000
 Gap=     0.507 Goal=   None    Shift=    0.000
 RMSDP=6.06D-05 MaxDP=3.00D-03 DE=-1.97D-07 OVMax= 6.66D-03

 Cycle  41  Pass 1  IDiag  1:
 E= -435.162347511382     Delta-E=       -0.000000372085 Rises=F Damp=F
 DIIS: error= 9.55D-06 at cycle  41 NSaved=   5.
 NSaved= 5 IEnMin= 5 EnMin= -435.162347511382     IErMin= 5 ErrMin= 9.55D-06
 ErrMax= 9.55D-06  0.00D+00 EMaxC= 1.00D-01 BMatC= 2.07D-09 BMatP= 1.73D-09
 IDIUse=1 WtCom= 1.00D+00 WtEn= 0.00D+00
 Large coefficients: NSaved=  5 BigCof=   33.30 CofMax=   10.00 Det=-6.24D-14
 Inversion failed.  Reducing to  4 matrices.
 Large coefficients: NSaved=  4 BigCof=   14.91 CofMax=   10.00 Det=-1.31D-13
 Inversion failed.  Reducing to  3 matrices.
 Coeff-Com: -0.384D+01 0.533D+01-0.497D+00
 Coeff:     -0.384D+01 0.533D+01-0.497D+00
 Gap=     0.559 Goal=   None    Shift=    0.000
 Gap=     0.507 Goal=   None    Shift=    0.000
 RMSDP=1.83D-05 MaxDP=9.11D-04 DE=-3.72D-07 OVMax= 2.01D-03

 Cycle  42  Pass 1  IDiag  1:
 E= -435.162347623365     Delta-E=       -0.000000111983 Rises=F Damp=F
 DIIS: error= 9.54D-06 at cycle  42 NSaved=   4.
 NSaved= 4 IEnMin= 4 EnMin= -435.162347623365     IErMin= 4 ErrMin= 9.54D-06
 ErrMax= 9.54D-06  0.00D+00 EMaxC= 1.00D-01 BMatC= 3.59D-09 BMatP= 1.82D-09
 IDIUse=1 WtCom= 1.00D+00 WtEn= 0.00D+00
 Large coefficients: NSaved=  4 BigCof=   14.41 CofMax=   10.00 Det=-1.60D-13
 Inversion failed.  Reducing to  3 matrices.
 Large coefficients: NSaved=  3 BigCof=   14.62 CofMax=   10.00 Det=-1.88D-13
 Inversion failed.  Reducing to  2 matrices.
 Coeff-Com:  0.176D+01-0.759D+00
 Coeff:      0.176D+01-0.759D+00
 Gap=     0.559 Goal=   None    Shift=    0.000
 Gap=     0.507 Goal=   None    Shift=    0.000
 RMSDP=3.19D-05 MaxDP=1.59D-03 DE=-1.12D-07 OVMax= 3.50D-03

 Cycle  43  Pass 1  IDiag  1:
 E= -435.162347428153     Delta-E=        0.000000195212 Rises=F Damp=F
 DIIS: error= 9.55D-06 at cycle  43 NSaved=   3.
 NSaved= 3 IEnMin= 2 EnMin= -435.162347623365     IErMin= 2 ErrMin= 9.54D-06
 ErrMax= 9.55D-06  0.00D+00 EMaxC= 1.00D-01 BMatC= 1.72D-09 BMatP= 2.07D-09
 IDIUse=1 WtCom= 1.00D+00 WtEn= 0.00D+00
 Coeff-Com: -0.263D+01 0.104D+01 0.259D+01
 Coeff:     -0.263D+01 0.104D+01 0.259D+01
 Gap=     0.559 Goal=   None    Shift=    0.000
 Gap=     0.507 Goal=   None    Shift=    0.000
 RMSDP=2.31D-06 MaxDP=1.16D-04 DE= 1.95D-07 OVMax= 2.54D-04

 Cycle  44  Pass 1  IDiag  1:
 E= -435.162347413942     Delta-E=        0.000000014211 Rises=F Damp=F
 DIIS: error= 9.55D-06 at cycle  44 NSaved=   4.
 NSaved= 4 IEnMin= 2 EnMin= -435.162347623365     IErMin= 2 ErrMin= 9.54D-06
 ErrMax= 9.55D-06  0.00D+00 EMaxC= 1.00D-01 BMatC= 1.72D-09 BMatP= 1.72D-09
 IDIUse=1 WtCom= 1.00D+00 WtEn= 0.00D+00
 Coeff-Com: -0.558D+00 0.360D+00-0.668D+00 0.187D+01
 Coeff:     -0.558D+00 0.360D+00-0.668D+00 0.187D+01
 Gap=     0.559 Goal=   None    Shift=    0.000
 Gap=     0.507 Goal=   None    Shift=    0.000
 RMSDP=2.21D-06 MaxDP=1.10D-04 DE= 1.42D-08 OVMax= 2.43D-04

 Cycle  45  Pass 1  IDiag  1:
 E= -435.162347427540     Delta-E=       -0.000000013599 Rises=F Damp=F
 DIIS: error= 9.55D-06 at cycle  45 NSaved=   5.
 NSaved= 5 IEnMin= 2 EnMin= -435.162347623365     IErMin= 2 ErrMin= 9.54D-06
 ErrMax= 9.55D-06  0.00D+00 EMaxC= 1.00D-01 BMatC= 1.72D-09 BMatP= 1.72D-09
 IDIUse=1 WtCom= 1.00D+00 WtEn= 0.00D+00
 Large coefficients: NSaved=  5 BigCof=   11.57 CofMax=   10.00 Det=-6.76D-15
 Inversion failed.  Reducing to  4 matrices.
 Coeff-Com: -0.303D+01 0.154D+01 0.747D+01-0.498D+01
 Coeff:     -0.303D+01 0.154D+01 0.747D+01-0.498D+01
 Gap=     0.559 Goal=   None    Shift=    0.000
 Gap=     0.507 Goal=   None    Shift=    0.000
 RMSDP=8.49D-06 MaxDP=4.21D-04 DE=-1.36D-08 OVMax= 9.33D-04

 Cycle  46  Pass 1  IDiag  1:
 E= -435.162347375389     Delta-E=        0.000000052152 Rises=F Damp=F
 DIIS: error= 9.55D-06 at cycle  46 NSaved=   5.
 NSaved= 5 IEnMin= 2 EnMin= -435.162347623365     IErMin= 2 ErrMin= 9.54D-06
 ErrMax= 9.55D-06  0.00D+00 EMaxC= 1.00D-01 BMatC= 1.74D-09 BMatP= 1.72D-09
 IDIUse=1 WtCom= 1.00D+00 WtEn= 0.00D+00
 Coeff-Com: -0.381D+01 0.217D+01 0.833D+01-0.999D+01 0.429D+01
 Coeff:     -0.381D+01 0.217D+01 0.833D+01-0.999D+01 0.429D+01
 Gap=     0.559 Goal=   None    Shift=    0.000
 Gap=     0.507 Goal=   None    Shift=    0.000
 RMSDP=2.87D-05 MaxDP=1.42D-03 DE= 5.22D-08 OVMax= 3.15D-03

 Cycle  47  Pass 1  IDiag  1:
 E= -435.162347199159     Delta-E=        0.000000176230 Rises=F Damp=F
 DIIS: error= 9.56D-06 at cycle  47 NSaved=   6.
 NSaved= 6 IEnMin= 2 EnMin= -435.162347623365     IErMin= 2 ErrMin= 9.54D-06
 ErrMax= 9.56D-06  0.00D+00 EMaxC= 1.00D-01 BMatC= 1.73D-09 BMatP= 1.72D-09
 IDIUse=1 WtCom= 1.00D+00 WtEn= 0.00D+00
 Large coefficients: NSaved=  6 BigCof=   55.22 CofMax=   10.00 Det=-7.23D-15
 Inversion failed.  Reducing to  5 matrices.
 Large coefficients: NSaved=  5 BigCof=   20.38 CofMax=   10.00 Det=-1.90D-14
 Inversion failed.  Reducing to  4 matrices.
 Large coefficients: NSaved=  4 BigCof=   14.38 CofMax=   10.00 Det=-9.49D-14
 Inversion failed.  Reducing to  3 matrices.
 Large coefficients: NSaved=  3 BigCof=   13.96 CofMax=   10.00 Det=-9.98D-14
 Inversion failed.  Reducing to  2 matrices.
 Coeff-Com: -0.717D+00 0.172D+01
 Coeff:     -0.717D+00 0.172D+01
 Gap=     0.559 Goal=   None    Shift=    0.000
 Gap=     0.507 Goal=   None    Shift=    0.000
 RMSDP=2.02D-05 MaxDP=1.00D-03 DE= 1.76D-07 OVMax= 2.22D-03

 Cycle  48  Pass 1  IDiag  1:
 E= -435.162347074690     Delta-E=        0.000000124469 Rises=F Damp=F
 DIIS: error= 9.57D-06 at cycle  48 NSaved=   3.
 NSaved= 3 IEnMin= 1 EnMin= -435.162347375389     IErMin= 1 ErrMin= 9.55D-06
 ErrMax= 9.57D-06  0.00D+00 EMaxC= 1.00D-01 BMatC= 1.74D-09 BMatP= 1.73D-09
 IDIUse=1 WtCom= 1.00D+00 WtEn= 0.00D+00
 Coeff-Com:  0.271D+01-0.291D+01 0.120D+01
 Coeff:      0.271D+01-0.291D+01 0.120D+01
 Gap=     0.559 Goal=   None    Shift=    0.000
 Gap=     0.507 Goal=   None    Shift=    0.000
 RMSDP=7.40D-05 MaxDP=3.66D-03 DE= 1.24D-07 OVMax= 8.13D-03

 Cycle  49  Pass 1  IDiag  1:
 E= -435.162347529104     Delta-E=       -0.000000454414 Rises=F Damp=F
 DIIS: error= 9.54D-06 at cycle  49 NSaved=   4.
 NSaved= 4 IEnMin= 4 EnMin= -435.162347529104     IErMin= 4 ErrMin= 9.54D-06
 ErrMax= 9.54D-06  0.00D+00 EMaxC= 1.00D-01 BMatC= 1.72D-09 BMatP= 1.73D-09
 IDIUse=1 WtCom= 1.00D+00 WtEn= 0.00D+00
 Coeff-Com:  0.475D+01-0.977D+01-0.120D+01 0.721D+01
 Coeff:      0.475D+01-0.977D+01-0.120D+01 0.721D+01
 Gap=     0.559 Goal=   None    Shift=    0.000
 Gap=     0.507 Goal=   None    Shift=    0.000
 RMSDP=4.92D-04 MaxDP=2.44D-02 DE=-4.54D-07 OVMax= 5.41D-02

 Cycle  50  Pass 1  IDiag  1:
 E= -435.162350265157     Delta-E=       -0.000002736053 Rises=F Damp=F
 DIIS: error= 1.60D-04 at cycle  50 NSaved=   5.
 NSaved= 5 IEnMin= 5 EnMin= -435.162350265157     IErMin= 4 ErrMin= 9.54D-06
 ErrMax= 1.60D-04  0.00D+00 EMaxC= 1.00D-01 BMatC= 1.12D-06 BMatP= 1.72D-09
 IDIUse=1 WtCom= 1.00D+00 WtEn= 0.00D+00
 Large coefficients: NSaved=  5 BigCof=   24.55 CofMax=   10.00 Det=-7.13D-14
 Inversion failed.  Reducing to  4 matrices.
 Large coefficients: NSaved=  4 BigCof=   28.03 CofMax=   10.00 Det=-7.94D-14
 Inversion failed.  Reducing to  3 matrices.
 Coeff-Com:  0.695D+01-0.598D+01 0.293D-01
 Coeff:      0.695D+01-0.598D+01 0.293D-01
 Gap=     0.559 Goal=   None    Shift=    0.000
 Gap=     0.507 Goal=   None    Shift=    0.000
 RMSDP=6.51D-04 MaxDP=3.23D-02 DE=-2.74D-06 OVMax= 7.15D-02

 Cycle  51  Pass 1  IDiag  1:
 E= -435.162346549162     Delta-E=        0.000003715995 Rises=F Damp=F
 DIIS: error= 9.61D-06 at cycle  51 NSaved=   4.
 NSaved= 4 IEnMin= 3 EnMin= -435.162350265157     IErMin= 2 ErrMin= 9.54D-06
 ErrMax= 9.61D-06  0.00D+00 EMaxC= 1.00D-01 BMatC= 4.64D-09 BMatP= 1.72D-09
 IDIUse=1 WtCom= 1.00D+00 WtEn= 0.00D+00
 Large coefficients: NSaved=  4 BigCof=   10.33 CofMax=   10.00 Det=-3.09D-13
 Inversion failed.  Reducing to  3 matrices.
 Coeff-Com:  0.299D+01 0.106D+00-0.210D+01
 Coeff:      0.299D+01 0.106D+00-0.210D+01
 Gap=     0.559 Goal=   None    Shift=    0.000
 Gap=     0.507 Goal=   None    Shift=    0.000
 RMSDP=5.44D-04 MaxDP=2.70D-02 DE= 3.72D-06 OVMax= 5.97D-02

 Cycle  52  Pass 1  IDiag  1:
 E= -435.162349768580     Delta-E=       -0.000003219418 Rises=F Damp=F
 DIIS: error= 1.03D-04 at cycle  52 NSaved=   4.
 NSaved= 4 IEnMin= 2 EnMin= -435.162350265157     IErMin= 1 ErrMin= 9.54D-06
 ErrMax= 1.03D-04  0.00D+00 EMaxC= 1.00D-01 BMatC= 4.57D-07 BMatP= 1.72D-09
 IDIUse=1 WtCom= 1.00D+00 WtEn= 0.00D+00
 Large coefficients: NSaved=  4 BigCof=   11.28 CofMax=   10.00 Det=-9.96D-13
 Inversion failed.  Reducing to  3 matrices.
 Coeff-Com:  0.109D+01 0.175D+01-0.184D+01
 Coeff:      0.109D+01 0.175D+01-0.184D+01
 Gap=     0.559 Goal=   None    Shift=    0.000
 Gap=     0.507 Goal=   None    Shift=    0.000
 RMSDP=8.33D-04 MaxDP=4.13D-02 DE=-3.22D-06 OVMax= 9.15D-02

 Cycle  53  Pass 1  IDiag  1:
 E= -435.162344662225     Delta-E=        0.000005106355 Rises=F Damp=F
 DIIS: error= 1.02D-04 at cycle  53 NSaved=   4.
 NSaved= 4 IEnMin= 1 EnMin= -435.162350265157     IErMin= 2 ErrMin= 9.61D-06
 ErrMax= 1.02D-04  0.00D+00 EMaxC= 1.00D-01 BMatC= 4.11D-07 BMatP= 4.64D-09
 IDIUse=1 WtCom= 1.00D+00 WtEn= 0.00D+00
 Coeff-Com: -0.673D+00 0.692D+00 0.126D+01-0.283D+00
 Coeff:     -0.673D+00 0.692D+00 0.126D+01-0.283D+00
 Gap=     0.559 Goal=   None    Shift=    0.000
 Gap=     0.507 Goal=   None    Shift=    0.000
 RMSDP=6.21D-04 MaxDP=3.08D-02 DE= 5.11D-06 OVMax= 6.82D-02

 Cycle  54  Pass 1  IDiag  1:
 E= -435.162348575183     Delta-E=       -0.000003912958 Rises=F Damp=F
 DIIS: error= 2.72D-05 at cycle  54 NSaved=   5.
 NSaved= 5 IEnMin= 1 EnMin= -435.162350265157     IErMin= 2 ErrMin= 9.61D-06
 ErrMax= 2.72D-05  0.00D+00 EMaxC= 1.00D-01 BMatC= 3.17D-08 BMatP= 4.64D-09
 IDIUse=1 WtCom= 1.00D+00 WtEn= 0.00D+00
 Coeff-Com: -0.269D+01-0.247D+01 0.435D+01-0.606D+00 0.242D+01
 Coeff:     -0.269D+01-0.247D+01 0.435D+01-0.606D+00 0.242D+01
 Gap=     0.558 Goal=   None    Shift=    0.000
 Gap=     0.507 Goal=   None    Shift=    0.000
 RMSDP=1.21D-03 MaxDP=5.97D-02 DE=-3.91D-06 OVMax= 1.33D-01

 Cycle  55  Pass 1  IDiag  1:
 E= -435.162340755611     Delta-E=        0.000007819572 Rises=F Damp=F
 DIIS: error= 1.23D-03 at cycle  55 NSaved=   6.
 NSaved= 6 IEnMin= 1 EnMin= -435.162350265157     IErMin= 2 ErrMin= 9.61D-06
 ErrMax= 1.23D-03  0.00D+00 EMaxC= 1.00D-01 BMatC= 6.52D-05 BMatP= 4.64D-09
 IDIUse=1 WtCom= 1.00D+00 WtEn= 0.00D+00
 Coeff-Com: -0.278D+01-0.253D+01 0.442D+01-0.582D+00 0.246D+01 0.263D-02
 Coeff:     -0.278D+01-0.253D+01 0.442D+01-0.582D+00 0.246D+01 0.263D-02
 Gap=     0.556 Goal=   None    Shift=    0.000
 Gap=     0.507 Goal=   None    Shift=    0.000
 RMSDP=4.80D-06 MaxDP=2.33D-04 DE= 7.82D-06 OVMax= 5.26D-04

 Cycle  56  Pass 1  IDiag  1:
 E= -435.162340928709     Delta-E=       -0.000000173098 Rises=F Damp=F
 DIIS: error= 1.22D-03 at cycle  56 NSaved=   7.
 NSaved= 7 IEnMin= 1 EnMin= -435.162350265157     IErMin= 2 ErrMin= 9.61D-06
 ErrMax= 1.22D-03  0.00D+00 EMaxC= 1.00D-01 BMatC= 6.43D-05 BMatP= 4.64D-09
 IDIUse=1 WtCom= 1.00D+00 WtEn= 0.00D+00
 Large coefficients: NSaved=  7 BigCof=   63.43 CofMax=   10.00 Det=-4.13D-14
 Inversion failed.  Reducing to  6 matrices.
 Coeff-Com: -0.293D+01-0.225D+01 0.365D+01 0.249D+01 0.108D+01-0.105D+01
 Coeff:     -0.293D+01-0.225D+01 0.365D+01 0.249D+01 0.108D+01-0.105D+01
 Gap=     0.558 Goal=   None    Shift=    0.000
 Gap=     0.507 Goal=   None    Shift=    0.000
 RMSDP=5.86D-04 MaxDP=2.87D-02 DE=-1.73D-07 OVMax= 6.43D-02

 Cycle  57  Pass 1  IDiag  1:
 E= -435.162350594898     Delta-E=       -0.000009666189 Rises=F Damp=F
 DIIS: error= 4.14D-04 at cycle  57 NSaved=   7.
 NSaved= 7 IEnMin= 7 EnMin= -435.162350594898     IErMin= 2 ErrMin= 9.61D-06
 ErrMax= 4.14D-04  0.00D+00 EMaxC= 1.00D-01 BMatC= 7.45D-06 BMatP= 4.64D-09
 IDIUse=1 WtCom= 1.00D+00 WtEn= 0.00D+00
 Large coefficients: NSaved=  7 BigCof=   85.23 CofMax=   10.00 Det=-1.15D-14
 Inversion failed.  Reducing to  6 matrices.
 Coeff-Com: -0.279D+01-0.292D+01 0.456D+01 0.249D+01 0.103D+00-0.451D+00
 Coeff:     -0.279D+01-0.292D+01 0.456D+01 0.249D+01 0.103D+00-0.451D+00
 Gap=     0.557 Goal=   None    Shift=    0.000
 Gap=     0.507 Goal=   None    Shift=    0.000
 RMSDP=2.49D-04 MaxDP=1.22D-02 DE=-9.67D-06 OVMax= 2.73D-02

 Cycle  58  Pass 1  IDiag  1:
 E= -435.162348947335     Delta-E=        0.000001647563 Rises=F Damp=F
 DIIS: error= 6.96D-04 at cycle  58 NSaved=   7.
 NSaved= 7 IEnMin= 6 EnMin= -435.162350594898     IErMin= 2 ErrMin= 9.61D-06
 ErrMax= 6.96D-04  0.00D+00 EMaxC= 1.00D-01 BMatC= 2.09D-05 BMatP= 4.64D-09
 IDIUse=1 WtCom= 1.00D+00 WtEn= 0.00D+00
 Coeff-Com: -0.353D+01-0.635D+01 0.988D+01 0.355D+01-0.479D+00-0.547D+01
 Coeff-Com:  0.340D+01
 Coeff:     -0.353D+01-0.635D+01 0.988D+01 0.355D+01-0.479D+00-0.547D+01
 Coeff:      0.340D+01
 Gap=     0.554 Goal=   None    Shift=    0.000
 Gap=     0.507 Goal=   None    Shift=    0.000
 RMSDP=1.03D-03 MaxDP=4.98D-02 DE= 1.65D-06 OVMax= 1.13D-01

 Cycle  59  Pass 1  IDiag  1:
 E= -435.162283431536     Delta-E=        0.000065515798 Rises=F Damp=F
 DIIS: error= 2.73D-03 at cycle  59 NSaved=   8.
 NSaved= 8 IEnMin= 6 EnMin= -435.162350594898     IErMin= 2 ErrMin= 9.61D-06
 ErrMax= 2.73D-03  0.00D+00 EMaxC= 1.00D-01 BMatC= 3.32D-04 BMatP= 4.64D-09
 IDIUse=1 WtCom= 1.00D+00 WtEn= 0.00D+00
 Large coefficients: NSaved=  8 BigCof=   10.53 CofMax=   10.00 Det=-1.17D-12
 Inversion failed.  Reducing to  7 matrices.
 Large coefficients: NSaved=  7 BigCof=   10.51 CofMax=   10.00 Det=-1.18D-12
 Inversion failed.  Reducing to  6 matrices.
 Coeff-Com: -0.696D+00 0.105D+01 0.889D+00-0.598D+00 0.364D+00-0.891D-02
 Coeff:     -0.696D+00 0.105D+01 0.889D+00-0.598D+00 0.364D+00-0.891D-02
 Gap=     0.564 Goal=   None    Shift=    0.000
 Gap=     0.507 Goal=   None    Shift=    0.000
 RMSDP=1.96D-03 MaxDP=9.62D-02 DE= 6.55D-05 OVMax= 2.14D-01

 Cycle  60  Pass 1  IDiag  1:
 E= -435.162348147890     Delta-E=       -0.000064716354 Rises=F Damp=F
 DIIS: error= 1.02D-05 at cycle  60 NSaved=   7.
 NSaved= 7 IEnMin= 4 EnMin= -435.162350594898     IErMin= 7 ErrMin= 1.02D-05
 ErrMax= 1.02D-05  0.00D+00 EMaxC= 1.00D-01 BMatC= 5.52D-09 BMatP= 3.17D-08
 IDIUse=1 WtCom= 1.00D+00 WtEn= 0.00D+00
 Coeff-Com: -0.273D+01 0.495D+01 0.465D+01-0.248D+01 0.140D+01-0.338D-01
 Coeff-Com: -0.476D+01
 Coeff:     -0.273D+01 0.495D+01 0.465D+01-0.248D+01 0.140D+01-0.338D-01
 Coeff:     -0.476D+01
 Gap=     0.559 Goal=   None    Shift=    0.000
 Gap=     0.507 Goal=   None    Shift=    0.000
 RMSDP=2.01D-04 MaxDP=9.98D-03 DE=-6.47D-05 OVMax= 2.21D-02

 Cycle  61  Pass 1  IDiag  1:
 E= -435.162349330181     Delta-E=       -0.000001182290 Rises=F Damp=F
 DIIS: error= 6.78D-05 at cycle  61 NSaved=   8.
 NSaved= 8 IEnMin= 4 EnMin= -435.162350594898     IErMin= 7 ErrMin= 1.02D-05
 ErrMax= 6.78D-05  0.00D+00 EMaxC= 1.00D-01 BMatC= 1.96D-07 BMatP= 5.52D-09
 IDIUse=1 WtCom= 1.00D+00 WtEn= 0.00D+00
 Coeff-Com: -0.251D+01 0.300D+01 0.298D+01-0.275D+01 0.152D+01-0.346D-01
 Coeff-Com: -0.476D+01 0.355D+01
 Coeff:     -0.251D+01 0.300D+01 0.298D+01-0.275D+01 0.152D+01-0.346D-01
 Coeff:     -0.476D+01 0.355D+01
 Gap=     0.559 Goal=   None    Shift=    0.000
 Gap=     0.507 Goal=   None    Shift=    0.000
 RMSDP=5.57D-05 MaxDP=2.76D-03 DE=-1.18D-06 OVMax= 6.12D-03

 Cycle  62  Pass 1  IDiag  1:
 E= -435.162349633488     Delta-E=       -0.000000303307 Rises=F Damp=F
 DIIS: error= 8.94D-05 at cycle  62 NSaved=   9.
 NSaved= 9 IEnMin= 4 EnMin= -435.162350594898     IErMin= 7 ErrMin= 1.02D-05
 ErrMax= 8.94D-05  0.00D+00 EMaxC= 1.00D-01 BMatC= 3.44D-07 BMatP= 5.52D-09
 IDIUse=1 WtCom= 1.00D+00 WtEn= 0.00D+00
 Large coefficients: NSaved=  9 BigCof=   12.33 CofMax=   10.00 Det=-4.19D-14
 Inversion failed.  Reducing to  8 matrices.
 Coeff-Com: -0.340D+00-0.176D+01-0.138D+01-0.309D+00 0.186D+00 0.313D+00
 Coeff-Com:  0.519D+01-0.893D+00
 Coeff:     -0.340D+00-0.176D+01-0.138D+01-0.309D+00 0.186D+00 0.313D+00
 Coeff:      0.519D+01-0.893D+00
 Gap=     0.559 Goal=   None    Shift=    0.000
 Gap=     0.507 Goal=   None    Shift=    0.000
 RMSDP=2.12D-04 MaxDP=1.05D-02 DE=-3.03D-07 OVMax= 2.33D-02

 Cycle  63  Pass 1  IDiag  1:
 E= -435.162348418490     Delta-E=        0.000001214998 Rises=F Damp=F
 DIIS: error= 2.15D-05 at cycle  63 NSaved=   9.
 NSaved= 9 IEnMin= 4 EnMin= -435.162350594898     IErMin= 6 ErrMin= 1.02D-05
 ErrMax= 2.15D-05  0.00D+00 EMaxC= 1.00D-01 BMatC= 1.99D-08 BMatP= 5.52D-09
 IDIUse=1 WtCom= 1.00D+00 WtEn= 0.00D+00
 Coeff-Com: -0.322D+00-0.174D+01-0.136D+01-0.357D+00 0.208D+00-0.214D+00
 Coeff-Com:  0.554D+01-0.122D+01 0.467D+00
 Coeff:     -0.322D+00-0.174D+01-0.136D+01-0.357D+00 0.208D+00-0.214D+00
 Coeff:      0.554D+01-0.122D+01 0.467D+00
 Gap=     0.559 Goal=   None    Shift=    0.000
 Gap=     0.507 Goal=   None    Shift=    0.000
 RMSDP=9.49D-06 MaxDP=4.73D-04 DE= 1.21D-06 OVMax= 1.04D-03

 Cycle  64  Pass 1  IDiag  1:
 E= -435.162348474746     Delta-E=       -0.000000056256 Rises=F Damp=F
 DIIS: error= 2.53D-05 at cycle  64 NSaved=  10.
 NSaved=10 IEnMin= 4 EnMin= -435.162350594898     IErMin= 6 ErrMin= 1.02D-05
 ErrMax= 2.53D-05  0.00D+00 EMaxC= 1.00D-01 BMatC= 2.72D-08 BMatP= 5.52D-09
 IDIUse=1 WtCom= 1.00D+00 WtEn= 0.00D+00
 Large coefficients: NSaved= 10 BigCof=  104.34 CofMax=   10.00 Det=-3.23D-15
 Inversion failed.  Reducing to  9 matrices.
 Large coefficients: NSaved=  9 BigCof=   34.55 CofMax=   10.00 Det=-1.13D-14
 Inversion failed.  Reducing to  8 matrices.
 Large coefficients: NSaved=  8 BigCof=   21.22 CofMax=   10.00 Det=-1.58D-14
 Inversion failed.  Reducing to  7 matrices.
 Large coefficients: NSaved=  7 BigCof=   19.30 CofMax=   10.00 Det=-3.40D-14
 Inversion failed.  Reducing to  6 matrices.
 Large coefficients: NSaved=  6 BigCof=   15.88 CofMax=   10.00 Det=-3.54D-14
 Inversion failed.  Reducing to  5 matrices.
 Large coefficients: NSaved=  5 BigCof=   13.87 CofMax=   10.00 Det=-3.79D-14
 Inversion failed.  Reducing to  4 matrices.
 Large coefficients: NSaved=  4 BigCof=   10.93 CofMax=   10.00 Det=-5.63D-14
 Inversion failed.  Reducing to  3 matrices.
 Large coefficients: NSaved=  3 BigCof=   10.50 CofMax=   10.00 Det=-7.96D-12
 Inversion failed.  Reducing to  2 matrices.
 Coeff-Com:  0.649D+01-0.549D+01
 Coeff:      0.649D+01-0.549D+01
 Gap=     0.559 Goal=   None    Shift=    0.000
 Gap=     0.507 Goal=   None    Shift=    0.000
 RMSDP=6.13D-05 MaxDP=3.05D-03 DE=-5.63D-08 OVMax= 6.74D-03

 Cycle  65  Pass 1  IDiag  1:
 E= -435.162348106113     Delta-E=        0.000000368634 Rises=F Damp=F
 DIIS: error= 9.53D-06 at cycle  65 NSaved=   3.
 NSaved= 3 IEnMin= 2 EnMin= -435.162348474746     IErMin= 3 ErrMin= 9.53D-06
 ErrMax= 9.53D-06  0.00D+00 EMaxC= 1.00D-01 BMatC= 1.85D-09 BMatP= 1.99D-08
 IDIUse=1 WtCom= 1.00D+00 WtEn= 0.00D+00
 Large coefficients: NSaved=  3 BigCof=   16.96 CofMax=   10.00 Det=-1.40D-13
 Inversion failed.  Reducing to  2 matrices.
 Coeff-Com: -0.818D-01 0.108D+01
 Coeff:     -0.818D-01 0.108D+01
 Gap=     0.559 Goal=   None    Shift=    0.000
 Gap=     0.507 Goal=   None    Shift=    0.000
 RMSDP=4.70D-06 MaxDP=2.34D-04 DE= 3.69D-07 OVMax= 5.16D-04

 Cycle  66  Pass 1  IDiag  1:
 E= -435.162348077423     Delta-E=        0.000000028690 Rises=F Damp=F
 DIIS: error= 9.52D-06 at cycle  66 NSaved=   3.
 NSaved= 3 IEnMin= 1 EnMin= -435.162348474746     IErMin= 3 ErrMin= 9.52D-06
 ErrMax= 9.52D-06  0.00D+00 EMaxC= 1.00D-01 BMatC= 1.71D-09 BMatP= 1.85D-09
 IDIUse=1 WtCom= 1.00D+00 WtEn= 0.00D+00
 Coeff-Com: -0.609D-01 0.785D+00 0.276D+00
 Coeff:     -0.609D-01 0.785D+00 0.276D+00
 Gap=     0.559 Goal=   None    Shift=    0.000
 Gap=     0.507 Goal=   None    Shift=    0.000
 RMSDP=1.41D-08 MaxDP=7.55D-07 DE= 2.87D-08 OVMax= 1.54D-06

 Cycle  67  Pass 1  IDiag  1:
 E= -435.162348077336     Delta-E=        0.000000000087 Rises=F Damp=F
 DIIS: error= 9.52D-06 at cycle  67 NSaved=   4.
 NSaved= 4 IEnMin= 1 EnMin= -435.162348474746     IErMin= 4 ErrMin= 9.52D-06
 ErrMax= 9.52D-06  0.00D+00 EMaxC= 1.00D-01 BMatC= 1.71D-09 BMatP= 1.71D-09
 IDIUse=1 WtCom= 1.00D+00 WtEn= 0.00D+00
 Coeff-Com: -0.153D+00 0.191D+01 0.612D+01-0.688D+01
 Coeff:     -0.153D+00 0.191D+01 0.612D+01-0.688D+01
 Gap=     0.559 Goal=   None    Shift=    0.000
 Gap=     0.507 Goal=   None    Shift=    0.000
 RMSDP=7.19D-07 MaxDP=3.52D-05 DE= 8.66D-11 OVMax= 7.90D-05

 Cycle  68  Pass 1  IDiag  1:
 E= -435.162348072936     Delta-E=        0.000000004400 Rises=F Damp=F
 DIIS: error= 9.52D-06 at cycle  68 NSaved=   5.
 NSaved= 5 IEnMin= 1 EnMin= -435.162348474746     IErMin= 4 ErrMin= 9.52D-06
 ErrMax= 9.52D-06  0.00D+00 EMaxC= 1.00D-01 BMatC= 1.71D-09 BMatP= 1.71D-09
 IDIUse=1 WtCom= 1.00D+00 WtEn= 0.00D+00
 Large coefficients: NSaved=  5 BigCof=   26.51 CofMax=   10.00 Det=-5.64D-15
 Inversion failed.  Reducing to  4 matrices.
 Coeff-Com: -0.922D-01 0.240D+01 0.853D+01-0.984D+01
 Coeff:     -0.922D-01 0.240D+01 0.853D+01-0.984D+01
 Gap=     0.559 Goal=   None    Shift=    0.000
 Gap=     0.507 Goal=   None    Shift=    0.000
 RMSDP=1.33D-05 MaxDP=6.58D-04 DE= 4.40D-09 OVMax= 1.47D-03

 Cycle  69  Pass 1  IDiag  1:
 E= -435.162348154520     Delta-E=       -0.000000081584 Rises=F Damp=F
 DIIS: error= 9.51D-06 at cycle  69 NSaved=   5.
 NSaved= 5 IEnMin= 1 EnMin= -435.162348474746     IErMin= 5 ErrMin= 9.51D-06
 ErrMax= 9.51D-06  0.00D+00 EMaxC= 1.00D-01 BMatC= 1.71D-09 BMatP= 1.71D-09
 IDIUse=1 WtCom= 1.00D+00 WtEn= 0.00D+00
 Coeff-Com: -0.937D-01 0.240D+01 0.833D+01-0.970D+01 0.624D-01
 Coeff:     -0.937D-01 0.240D+01 0.833D+01-0.970D+01 0.624D-01
 Gap=     0.559 Goal=   None    Shift=    0.000
 Gap=     0.507 Goal=   None    Shift=    0.000
 RMSDP=5.87D-07 MaxDP=2.90D-05 DE=-8.16D-08 OVMax= 6.45D-05

 Cycle  70  Pass 1  IDiag  1:
 E= -435.162348158112     Delta-E=       -0.000000003592 Rises=F Damp=F
 DIIS: error= 9.51D-06 at cycle  70 NSaved=   6.
 NSaved= 6 IEnMin= 1 EnMin= -435.162348474746     IErMin= 6 ErrMin= 9.51D-06
 ErrMax= 9.51D-06  0.00D+00 EMaxC= 1.00D-01 BMatC= 1.71D-09 BMatP= 1.71D-09
 IDIUse=1 WtCom= 1.00D+00 WtEn= 0.00D+00
 Large coefficients: NSaved=  6 BigCof=  197.62 CofMax=   10.00 Det=-5.58D-17
 Inversion failed.  Reducing to  5 matrices.
 Large coefficients: NSaved=  5 BigCof=  199.06 CofMax=   10.00 Det=-7.98D-17
 Inversion failed.  Reducing to  4 matrices.
 Large coefficients: NSaved=  4 BigCof=  204.83 CofMax=   10.00 Det=-8.03D-17
 Inversion failed.  Reducing to  3 matrices.
 Large coefficients: NSaved=  3 BigCof=  151.72 CofMax=   10.00 Det=-9.14D-17
 Inversion failed.  Reducing to  2 matrices.
 Large coefficients: NSaved=  2 BigCof=   25.40 CofMax=   10.00 Det=-2.48D-15
 Coeff-Com:  0.254D+02-0.244D+02
 Coeff:      0.254D+02-0.244D+02
 Gap=     0.559 Goal=   None    Shift=    0.000
 Gap=     0.507 Goal=   None    Shift=    0.000
 RMSDP=1.46D-05 MaxDP=7.20D-04 DE=-3.59D-09 OVMax= 1.60D-03

 Cycle  71  Pass 1  IDiag  1:
 E= -435.162348068853     Delta-E=        0.000000089259 Rises=F Damp=F
 DIIS: error= 9.52D-06 at cycle  71 NSaved=   3.
 NSaved= 3 IEnMin= 2 EnMin= -435.162348158112     IErMin= 2 ErrMin= 9.51D-06
 ErrMax= 9.52D-06  0.00D+00 EMaxC= 1.00D-01 BMatC= 1.71D-09 BMatP= 1.71D-09
 IDIUse=1 WtCom= 1.00D+00 WtEn= 0.00D+00
 Large coefficients: NSaved=  3 BigCof=   27.03 CofMax=   10.00 Det=-9.65D-16
 Inversion failed.  Reducing to  2 matrices.
 Coeff-Com:  0.228D+00 0.772D+00
 Coeff:      0.228D+00 0.772D+00
 Gap=     0.559 Goal=   None    Shift=    0.000
 Gap=     0.507 Goal=   None    Shift=    0.000
 RMSDP=3.64D-06 MaxDP=1.79D-04 DE= 8.93D-08 OVMax= 4.00D-04

 Cycle  72  Pass 1  IDiag  1:
 E= -435.162348091114     Delta-E=       -0.000000022261 Rises=F Damp=F
 DIIS: error= 9.52D-06 at cycle  72 NSaved=   3.
 NSaved= 3 IEnMin= 1 EnMin= -435.162348158112     IErMin= 1 ErrMin= 9.51D-06
 ErrMax= 9.52D-06  0.00D+00 EMaxC= 1.00D-01 BMatC= 1.71D-09 BMatP= 1.71D-09
 IDIUse=1 WtCom= 1.00D+00 WtEn= 0.00D+00
 Coeff-Com:  0.975D+00-0.174D+01 0.176D+01
 Coeff:      0.975D+00-0.174D+01 0.176D+01
 Gap=     0.559 Goal=   None    Shift=    0.000
 Gap=     0.507 Goal=   None    Shift=    0.000
 RMSDP=1.73D-05 MaxDP=8.54D-04 DE=-2.23D-08 OVMax= 1.90D-03

 Cycle  73  Pass 1  IDiag  1:
 E= -435.162348197002     Delta-E=       -0.000000105888 Rises=F Damp=F
 DIIS: error= 9.51D-06 at cycle  73 NSaved=   4.
 NSaved= 4 IEnMin= 4 EnMin= -435.162348197002     IErMin= 4 ErrMin= 9.51D-06
 ErrMax= 9.51D-06  0.00D+00 EMaxC= 1.00D-01 BMatC= 1.71D-09 BMatP= 1.71D-09
 IDIUse=1 WtCom= 1.00D+00 WtEn= 0.00D+00
 Large coefficients: NSaved=  4 BigCof=  120.61 CofMax=   10.00 Det=-8.90D-15
 Inversion failed.  Reducing to  3 matrices.
 Coeff-Com: -0.226D+00 0.160D+00 0.107D+01
 Coeff:     -0.226D+00 0.160D+00 0.107D+01
 Gap=     0.559 Goal=   None    Shift=    0.000
 Gap=     0.507 Goal=   None    Shift=    0.000
 RMSDP=1.01D-06 MaxDP=5.00D-05 DE=-1.06D-07 OVMax= 1.11D-04

 Cycle  74  Pass 1  IDiag  1:
 E= -435.162348190831     Delta-E=        0.000000006171 Rises=F Damp=F
 DIIS: error= 9.51D-06 at cycle  74 NSaved=   4.
 NSaved= 4 IEnMin= 3 EnMin= -435.162348197002     IErMin= 3 ErrMin= 9.51D-06
 ErrMax= 9.51D-06  0.00D+00 EMaxC= 1.00D-01 BMatC= 1.71D-09 BMatP= 1.71D-09
 IDIUse=1 WtCom= 1.00D+00 WtEn= 0.00D+00
 Large coefficients: NSaved=  4 BigCof=   19.93 CofMax=   10.00 Det=-5.65D-14
 Inversion failed.  Reducing to  3 matrices.
 Coeff-Com: -0.317D+00 0.576D+00 0.741D+00
 Coeff:     -0.317D+00 0.576D+00 0.741D+00
 Gap=     0.559 Goal=   None    Shift=    0.000
 Gap=     0.507 Goal=   None    Shift=    0.000
 RMSDP=2.60D-06 MaxDP=1.28D-04 DE= 6.17D-09 OVMax= 2.85D-04

 Cycle  75  Pass 1  IDiag  1:
 E= -435.162348206710     Delta-E=       -0.000000015879 Rises=F Damp=F
 DIIS: error= 9.51D-06 at cycle  75 NSaved=   4.
 NSaved= 4 IEnMin= 4 EnMin= -435.162348206710     IErMin= 4 ErrMin= 9.51D-06
 ErrMax= 9.51D-06  0.00D+00 EMaxC= 1.00D-01 BMatC= 1.70D-09 BMatP= 1.71D-09
 IDIUse=1 WtCom= 1.00D+00 WtEn= 0.00D+00
 Coeff-Com:  0.418D+00-0.154D+01-0.350D+01 0.562D+01
 Coeff:      0.418D+00-0.154D+01-0.350D+01 0.562D+01
 Gap=     0.559 Goal=   None    Shift=    0.000
 Gap=     0.507 Goal=   None    Shift=    0.000
 RMSDP=8.53D-06 MaxDP=4.20D-04 DE=-1.59D-08 OVMax= 9.37D-04

 Cycle  76  Pass 1  IDiag  1:
 E= -435.162348258843     Delta-E=       -0.000000052133 Rises=F Damp=F
 DIIS: error= 9.51D-06 at cycle  76 NSaved=   5.
 NSaved= 5 IEnMin= 5 EnMin= -435.162348258843     IErMin= 5 ErrMin= 9.51D-06
 ErrMax= 9.51D-06  0.00D+00 EMaxC= 1.00D-01 BMatC= 1.70D-09 BMatP= 1.70D-09
 IDIUse=1 WtCom= 1.00D+00 WtEn= 0.00D+00
 Coeff-Com:  0.701D+00-0.180D+01-0.305D+01-0.853D+00 0.599D+01
 Coeff:      0.701D+00-0.180D+01-0.305D+01-0.853D+00 0.599D+01
 Gap=     0.559 Goal=   None    Shift=    0.000
 Gap=     0.507 Goal=   None    Shift=    0.000
 RMSDP=4.81D-05 MaxDP=2.37D-03 DE=-5.21D-08 OVMax= 5.28D-03

 Cycle  77  Pass 1  IDiag  1:
 E= -435.162348552309     Delta-E=       -0.000000293466 Rises=F Damp=F
 DIIS: error= 9.49D-06 at cycle  77 NSaved=   6.
 NSaved= 6 IEnMin= 6 EnMin= -435.162348552309     IErMin= 6 ErrMin= 9.49D-06
 ErrMax= 9.49D-06  0.00D+00 EMaxC= 1.00D-01 BMatC= 1.80D-09 BMatP= 1.70D-09
 IDIUse=1 WtCom= 1.00D+00 WtEn= 0.00D+00
 Large coefficients: NSaved=  6 BigCof=   16.42 CofMax=   10.00 Det=-1.54D-14
 Inversion failed.  Reducing to  5 matrices.
 Coeff-Com: -0.186D+01-0.224D+01-0.445D+00 0.539D+01 0.159D+00
 Coeff:     -0.186D+01-0.224D+01-0.445D+00 0.539D+01 0.159D+00
 Gap=     0.559 Goal=   None    Shift=    0.000
 Gap=     0.507 Goal=   None    Shift=    0.000
 RMSDP=7.41D-06 MaxDP=3.65D-04 DE=-2.93D-07 OVMax= 8.15D-04

 Cycle  78  Pass 1  IDiag  1:
 E= -435.162348597520     Delta-E=       -0.000000045212 Rises=F Damp=F
 DIIS: error= 9.49D-06 at cycle  78 NSaved=   6.
 NSaved= 6 IEnMin= 6 EnMin= -435.162348597520     IErMin= 6 ErrMin= 9.49D-06
 ErrMax= 9.49D-06  0.00D+00 EMaxC= 1.00D-01 BMatC= 1.84D-09 BMatP= 1.70D-09
 IDIUse=1 WtCom= 1.00D+00 WtEn= 0.00D+00
 Large coefficients: NSaved=  6 BigCof=   65.31 CofMax=   10.00 Det=-3.77D-15
 Inversion failed.  Reducing to  5 matrices.
 Large coefficients: NSaved=  5 BigCof=   19.49 CofMax=   10.00 Det=-9.83D-15
 Inversion failed.  Reducing to  4 matrices.
 Coeff-Com: -0.415D+01 0.574D+01-0.432D+01 0.372D+01
 Coeff:     -0.415D+01 0.574D+01-0.432D+01 0.372D+01
 Gap=     0.559 Goal=   None    Shift=    0.000
 Gap=     0.507 Goal=   None    Shift=    0.000
 RMSDP=2.07D-05 MaxDP=1.02D-03 DE=-4.52D-08 OVMax= 2.28D-03

 Cycle  79  Pass 1  IDiag  1:
 E= -435.162348471089     Delta-E=        0.000000126431 Rises=F Damp=F
 DIIS: error= 9.49D-06 at cycle  79 NSaved=   5.
 NSaved= 5 IEnMin= 4 EnMin= -435.162348597520     IErMin= 4 ErrMin= 9.49D-06
 ErrMax= 9.49D-06  0.00D+00 EMaxC= 1.00D-01 BMatC= 1.70D-09 BMatP= 1.70D-09
 IDIUse=1 WtCom= 1.00D+00 WtEn= 0.00D+00
 Large coefficients: NSaved=  5 BigCof=   90.42 CofMax=   10.00 Det=-6.73D-15
 Inversion failed.  Reducing to  4 matrices.
 Large coefficients: NSaved=  4 BigCof=   89.88 CofMax=   10.00 Det=-7.50D-15
 Inversion failed.  Reducing to  3 matrices.
 Large coefficients: NSaved=  3 BigCof=   69.87 CofMax=   10.00 Det=-8.44D-15
 Inversion failed.  Reducing to  2 matrices.
 Coeff-Com: -0.470D-02 0.100D+01
 Coeff:     -0.470D-02 0.100D+01
 Gap=     0.559 Goal=   None    Shift=    0.000
 Gap=     0.507 Goal=   None    Shift=    0.000
 RMSDP=2.19D-07 MaxDP=1.08D-05 DE= 1.26D-07 OVMax= 2.41D-05

 Cycle  80  Pass 1  IDiag  1:
 E= -435.162348472427     Delta-E=       -0.000000001338 Rises=F Damp=F
 DIIS: error= 9.49D-06 at cycle  80 NSaved=   3.
 NSaved= 3 IEnMin= 1 EnMin= -435.162348597520     IErMin= 1 ErrMin= 9.49D-06
 ErrMax= 9.49D-06  0.00D+00 EMaxC= 1.00D-01 BMatC= 1.70D-09 BMatP= 1.70D-09
 IDIUse=1 WtCom= 1.00D+00 WtEn= 0.00D+00
 Coeff-Com:  0.496D-02 0.500D+00 0.496D+00
 Coeff:      0.496D-02 0.500D+00 0.496D+00
 Gap=     0.559 Goal=   None    Shift=    0.000
 Gap=     0.507 Goal=   None    Shift=    0.000
 RMSDP=3.09D-07 MaxDP=1.52D-05 DE=-1.34D-09 OVMax= 3.40D-05

 Cycle  81  Pass 1  IDiag  1:
 E= -435.162348474313     Delta-E=       -0.000000001886 Rises=F Damp=F
 DIIS: error= 9.49D-06 at cycle  81 NSaved=   4.
 NSaved= 4 IEnMin= 1 EnMin= -435.162348597520     IErMin= 1 ErrMin= 9.49D-06
 ErrMax= 9.49D-06  0.00D+00 EMaxC= 1.00D-01 BMatC= 1.70D-09 BMatP= 1.70D-09
 IDIUse=1 WtCom= 1.00D+00 WtEn= 0.00D+00
 Coeff-Com: -0.573D-02 0.108D+01 0.207D+01-0.215D+01
 Coeff:     -0.573D-02 0.108D+01 0.207D+01-0.215D+01
 Gap=     0.559 Goal=   None    Shift=    0.000
 Gap=     0.507 Goal=   None    Shift=    0.000
 RMSDP=1.01D-06 MaxDP=4.98D-05 DE=-1.89D-09 OVMax= 1.11D-04

 Cycle  82  Pass 1  IDiag  1:
 E= -435.162348468142     Delta-E=        0.000000006171 Rises=F Damp=F
 DIIS: error= 9.49D-06 at cycle  82 NSaved=   5.
 NSaved= 5 IEnMin= 1 EnMin= -435.162348597520     IErMin= 1 ErrMin= 9.49D-06
 ErrMax= 9.49D-06  0.00D+00 EMaxC= 1.00D-01 BMatC= 1.70D-09 BMatP= 1.70D-09
 IDIUse=1 WtCom= 1.00D+00 WtEn= 0.00D+00
 Large coefficients: NSaved=  5 BigCof=   19.22 CofMax=   10.00 Det=-1.06D-14
 Inversion failed.  Reducing to  4 matrices.
 Coeff-Com:  0.161D-01-0.345D-01 0.843D+00 0.175D+00
 Coeff:      0.161D-01-0.345D-01 0.843D+00 0.175D+00
 Gap=     0.559 Goal=   None    Shift=    0.000
 Gap=     0.507 Goal=   None    Shift=    0.000
 RMSDP=1.49D-06 MaxDP=7.33D-05 DE= 6.17D-09 OVMax= 1.63D-04

 Cycle  83  Pass 1  IDiag  1:
 E= -435.162348477221     Delta-E=       -0.000000009079 Rises=F Damp=F
 DIIS: error= 9.49D-06 at cycle  83 NSaved=   5.
 NSaved= 5 IEnMin= 1 EnMin= -435.162348597520     IErMin= 1 ErrMin= 9.49D-06
 ErrMax= 9.49D-06  0.00D+00 EMaxC= 1.00D-01 BMatC= 1.70D-09 BMatP= 1.70D-09
 IDIUse=1 WtCom= 1.00D+00 WtEn= 0.00D+00
 Large coefficients: NSaved=  5 BigCof=  514.93 CofMax=   10.00 Det=-6.50D-18
 Inversion failed.  Reducing to  4 matrices.
 Coeff-Com:  0.165D-01 0.116D+01 0.116D+00-0.294D+00
 Coeff:      0.165D-01 0.116D+01 0.116D+00-0.294D+00
 Gap=     0.559 Goal=   None    Shift=    0.000
 Gap=     0.507 Goal=   None    Shift=    0.000
 RMSDP=8.37D-08 MaxDP=4.12D-06 DE=-9.08D-09 OVMax= 9.20D-06

 Cycle  84  Pass 1  IDiag  1:
 E= -435.162348476710     Delta-E=        0.000000000511 Rises=F Damp=F
 DIIS: error= 9.49D-06 at cycle  84 NSaved=   5.
 NSaved= 5 IEnMin= 1 EnMin= -435.162348597520     IErMin= 1 ErrMin= 9.49D-06
 ErrMax= 9.49D-06  0.00D+00 EMaxC= 1.00D-01 BMatC= 1.70D-09 BMatP= 1.70D-09
 IDIUse=1 WtCom= 1.00D+00 WtEn= 0.00D+00
 Large coefficients: NSaved=  5 BigCof=   38.89 CofMax=   10.00 Det=-5.07D-19
 Inversion failed.  Reducing to  4 matrices.
 Coeff-Com:  0.165D-01 0.140D+01-0.115D+01 0.729D+00
 Coeff:      0.165D-01 0.140D+01-0.115D+01 0.729D+00
 Gap=     0.559 Goal=   None    Shift=    0.000
 Gap=     0.507 Goal=   None    Shift=    0.000
 RMSDP=3.00D-09 MaxDP=1.48D-07 DE= 5.11D-10 OVMax= 3.30D-07

 SCF Done:  E(UHF) =  -435.162348477     A.U. after   84 cycles
            NFock= 84  Conv=0.30D-08     -V/T= 2.0017
 <Sx>= 0.0000 <Sy>= 0.0000 <Sz>= 0.5000 <S**2>= 0.7527 S= 0.5013
 <L.S>= 0.000000000000E+00
 KE= 4.344071708387D+02 PE=-1.317215109711D+03 EE= 3.025946209150D+02
 Annihilation of the first spin contaminant:
 S**2 before annihilation     0.7527,   after     0.7500
 Leave Link  502 at Sat Mar  4 13:41:28 2017, MaxMem=   655360000 cpu:         7.0
 (Enter /mnt/software/gaussian/g09/l801.exe)
 Range of M.O.s used for correlation:     1    75
 NBasis=    75 NAE=    21 NBE=    20 NFC=     0 NFV=     0
 NROrb=     75 NOA=    21 NOB=    20 NVA=    54 NVB=    55

 **** Warning!!: The largest alpha MO coefficient is  0.10654038D+02


 **** Warning!!: The largest beta MO coefficient is  0.10654038D+02

 Leave Link  801 at Sat Mar  4 13:41:28 2017, MaxMem=   655360000 cpu:         0.1
 (Enter /mnt/software/gaussian/g09/l1002.exe)
 Minotr:  UHF open shell wavefunction.
          Direct CPHF calculation.
          Differentiating once with respect to electric field.
                with respect to dipole field.
          Electric field/nuclear overlap derivatives assumed to be zero.
          Requested convergence is 1.0D-08 RMS, and 1.0D-07 maximum.
          Secondary convergence is 1.0D-12 RMS, and 1.0D-12 maximum.
          NewPWx=F KeepS1=T KeepF1=T KeepIn=T MapXYZ=F SortEE=F KeepMc=T.
          MDV=     655359806 using IRadAn=       2.
 Keep R1 and R2 ints in memory in canonical form, NReq=8971765.
 FoFCou: FMM=F IPFlag=           0 FMFlag=           0 FMFlg1=           0
         NFxFlg=           0 DoJE=F BraDBF=F KetDBF=F FulRan=T
         wScrn=  0.000000 ICntrl=     600 IOpCl=  0 I1Cent=           0 NGrid=           0
         NMat0=    1 NMatS0=   2850 NMatT0=    0 NMatD0=    1 NMtDS0=    0 NMtDT0=    0
 Symmetry not used in FoFCou.
          Solving linear equations simultaneously, MaxMat=       0.
          There are     3 degrees of freedom in the 1st order CPHF.  IDoFFX=0 NUNeed=     3.
      3 vectors produced by pass  0 Test12= 7.45D-14 3.33D-08 XBig12= 4.06D+00 8.03D-01.
 AX will form     3 AO Fock derivatives at one time.
      3 vectors produced by pass  1 Test12= 7.45D-14 3.33D-08 XBig12= 2.70D-01 8.45D-02.
      3 vectors produced by pass  2 Test12= 7.45D-14 3.33D-08 XBig12= 2.79D-02 3.75D-02.
      3 vectors produced by pass  3 Test12= 7.45D-14 3.33D-08 XBig12= 7.74D-04 1.36D-02.
      3 vectors produced by pass  4 Test12= 7.45D-14 3.33D-08 XBig12= 2.01D-05 2.14D-03.
      3 vectors produced by pass  5 Test12= 7.45D-14 3.33D-08 XBig12= 6.06D-07 1.78D-04.
      3 vectors produced by pass  6 Test12= 7.45D-14 3.33D-08 XBig12= 2.36D-08 8.06D-05.
      3 vectors produced by pass  7 Test12= 7.45D-14 3.33D-08 XBig12= 4.15D-09 4.41D-05.
      3 vectors produced by pass  8 Test12= 7.45D-14 3.33D-08 XBig12= 3.77D-10 5.82D-06.
      3 vectors produced by pass  9 Test12= 7.45D-14 3.33D-08 XBig12= 7.93D-12 5.89D-07.
      2 vectors produced by pass 10 Test12= 7.45D-14 3.33D-08 XBig12= 2.25D-13 9.49D-08.
 InvSVY:  IOpt=1 It=  1 EMax= 1.21D-15
 Solved reduced A of dimension    32 with     3 vectors.
 End of Minotr F.D. properties file   721 does not exist.
 End of Minotr F.D. properties file   722 does not exist.
 End of Minotr F.D. properties file   788 does not exist.
 Leave Link 1002 at Sat Mar  4 13:41:28 2017, MaxMem=   655360000 cpu:         2.4
 (Enter /mnt/software/gaussian/g09/l1101.exe)
 Using compressed storage, NAtomX=     5.
 Will process      6 centers per pass.
 Leave Link 1101 at Sat Mar  4 13:41:28 2017, MaxMem=   655360000 cpu:         0.7
 (Enter /mnt/software/gaussian/g09/l1102.exe)
 Symmetrizing basis deriv contribution to polar:
 IMax=3 JMax=2 DiffMx= 0.00D+00
 Leave Link 1102 at Sat Mar  4 13:41:28 2017, MaxMem=   655360000 cpu:         0.1
 (Enter /mnt/software/gaussian/g09/l1110.exe)
 Forming Gx(P) for the SCF density, NAtomX=     5.
 Integral derivatives from FoFJK, PRISM(SPDF).
 Do as many integral derivatives as possible in FoFJK.
 G2DrvN: MDV=     655359856.
 G2DrvN: will do     6 centers at a time, making    1 passes.
 PxScal for G2LodP:  IOpCl= 1 ISclPx=1 IMOff=     1 NMtTot=     4 NTT=    2850 ScalPx= 3.44D+00
 Calling FoFCou, ICntrl=  3107 FMM=F I1Cent=   0 AccDes= 0.00D+00.
 FoFJK:  IHMeth= 1 ICntrl=    3107 DoSepK=F KAlg= 0 I1Cent=   0 FoldK=F
 IRaf=         0 NMat=   1 IRICut=       1 DoRegI=T DoRafI=F ISym2E= 0.
 FoFCou: FMM=F IPFlag=           0 FMFlag=      100000 FMFlg1=           0
         NFxFlg=           0 DoJE=F BraDBF=F KetDBF=F FulRan=T
         wScrn=  0.000000 ICntrl=    3107 IOpCl=  1 I1Cent=           0 NGrid=           0
         NMat0=    1 NMatS0=      1 NMatT0=    0 NMatD0=    4 NMtDS0=    3 NMtDT0=    0
 Symmetry not used in FoFCou.
 End of G2Drv F.D. properties file   721 does not exist.
 End of G2Drv F.D. properties file   722 does not exist.
 End of G2Drv F.D. properties file   788 does not exist.
 Leave Link 1110 at Sat Mar  4 13:41:29 2017, MaxMem=   655360000 cpu:         2.0
 (Enter /mnt/software/gaussian/g09/l1002.exe)
 Minotr:  UHF open shell wavefunction.
          IDoAtm=11111
          Direct CPHF calculation.
          Differentiating once with respect to electric field.
                with respect to dipole field.
          Differentiating once with respect to nuclear coordinates.
          Requested convergence is 1.0D-08 RMS, and 1.0D-07 maximum.
          Secondary convergence is 1.0D-12 RMS, and 1.0D-12 maximum.
          NewPWx=T KeepS1=F KeepF1=F KeepIn=T MapXYZ=F SortEE=F KeepMc=T.
          MDV=     655359796 using IRadAn=       2.
 Keep R1 and R2 ints in memory in canonical form, NReq=8971880.
 FoFCou: FMM=F IPFlag=           0 FMFlag=           0 FMFlg1=           0
         NFxFlg=           0 DoJE=F BraDBF=F KetDBF=F FulRan=T
[...]
     X                  X                                                          X                                                 
     X                  X                                                          X                                                 
     X                  X                                                          X                                                 
     X                  X                                                                                                            
     X                  X                                                                                                            
     X                  X                                                                                                            
     X                  X                                                                                                            
     X                  X                                                                                                            
     X                  X                                                                                                            
     X                  X                                                                                                            
     X                  X                                                                                                            
     X                  X                                                                                                            
     X                  X                                                                                                            
     X                  X                                                                                                            
     X                  X                                                                                                            
     X                  X                                                                                                            
     X                  X                                                                                                            
     X                                                                                                                               
     X                                                                                                                               
 
 
                                                          Distorted Ethanol
                                                            Raman Spectrum
 
     2                  1                                    1                                                                       
     1                  8                                    1                     8          66                                     
     3                  2                                    9                     2          32                                     
     9                  3                                    9                     9          89                                     
 
     X                  X                                    X                     X          XX                                     
                        X                                    X                                XX                                     
                                                             X                                XX                                     
                                                             X                                X                                      
                                                             X                                                                       
                                                             X                                                                       
                                                             X                                                                       
                                                             X                                                                       
                                                             X                                                                       
                                                             X                                                                       
                                                             X                                                                       
                                                             X                                                                       
                                                             X                                                                       
                                                             X                                                                       
                                                             X                                                                       
                                                             X                                                                       
                                                             X                                                                       
                                                             X                                                                       
                                                             X                                                                       
                                                             X                                                                       
 
 Forces in standard orientation:
 -------------------------------------------------------------------
 Center     Atomic                   Forces (Hartrees/Bohr)
 Number     Number              X              Y              Z
 -------------------------------------------------------------------
      1        6           0.066982440   -0.084807184    0.040544989
      2        9          -0.020619963    0.022070003    0.003774893
      3        9          -0.044470479    0.032999790   -0.085148427
      4        9          -0.000000200   -0.000000945    0.000001955
      5        9          -0.001891797    0.029738335    0.040826590
 -------------------------------------------------------------------
 ***** Axes restored to original set *****
 Rotating derivatives, DoTrsp=F IDiff=-2 LEDeriv=    772 LFDPrp=       0 LDFDPr=       0.
 -------------------------------------------------------------------
 Center     Atomic                   Forces (Hartrees/Bohr)
 Number     Number              X              Y              Z
 -------------------------------------------------------------------
      1        6           0.106544777    0.018435982   -0.040387211
      2        9          -0.027165531   -0.013682476   -0.001158239
      3        9          -0.055649852    0.006561439    0.084716621
      4        9           0.000001038   -0.000001256   -0.000001448
      5        9          -0.023730433   -0.011313688   -0.043169722
 -------------------------------------------------------------------
 Cartesian Forces:  Max     0.106544777 RMS     0.042521322
 Z-matrix is all fixed cartesians, so copy forces.
 Force constants in Cartesian coordinates: 
                1             2             3             4             5 
      1  0.103591D+01
      2 -0.263850D+00  0.357428D+00
      3 -0.955065D-01  0.861071D-01  0.148775D+01
      4 -0.516589D+00  0.959754D-01 -0.275874D-01  0.648212D+00
      5  0.816817D-01 -0.127406D+00  0.478202D-02 -0.144655D+00  0.765498D-01
      6 -0.270746D-01  0.595429D-02 -0.121335D+00  0.335420D-01 -0.463344D-02
      7 -0.308440D+00  0.119840D+00  0.372680D+00 -0.747714D-01  0.368979D-01
      8  0.127510D+00 -0.125660D+00 -0.200313D+00  0.286261D-01  0.240119D-01
      9  0.374596D+00 -0.189806D+00 -0.701130D+00  0.404765D-01 -0.155793D-01
     10  0.000000D+00  0.000000D+00  0.000000D+00 -0.151227D-05  0.000000D+00
     11  0.143081D-05  0.000000D+00  0.000000D+00 -0.253039D-05  0.000000D+00
     12  0.000000D+00  0.000000D+00  0.000000D+00  0.000000D+00  0.000000D+00
     13 -0.210885D+00  0.480346D-01 -0.249586D+00 -0.568499D-01  0.260748D-01
     14  0.546569D-01 -0.104361D+00  0.109424D+00  0.200558D-01  0.268438D-01
     15 -0.252014D+00  0.977447D-01 -0.665290D+00 -0.464314D-01  0.154308D-01
                6             7             8             9            10 
      6  0.127813D+00
      7  0.657704D-01  0.346574D+00
      8 -0.199564D-01 -0.157885D+00  0.663260D-01
      9  0.528339D-02 -0.435716D+00  0.220912D+00  0.820594D+00
     10  0.000000D+00  0.000000D+00  0.000000D+00  0.000000D+00  0.000000D+00
     11  0.000000D+00  0.000000D+00  0.000000D+00  0.000000D+00  0.000000D+00
     12  0.000000D+00  0.000000D+00  0.000000D+00  0.000000D+00  0.000000D+00
     13 -0.722378D-01  0.366371D-01  0.174892D-02  0.206445D-01  0.000000D+00
     14  0.186357D-01  0.114629D-02  0.353217D-01 -0.155263D-01  0.000000D+00
     15 -0.117618D-01 -0.273488D-02 -0.642938D-03 -0.124748D+00  0.000000D+00
               11            12            13            14            15 
     11  0.000000D+00
     12  0.000000D+00  0.000000D+00
     13  0.000000D+00  0.000000D+00  0.231097D+00
     14  0.000000D+00  0.000000D+00 -0.758591D-01  0.421958D-01
     15  0.140870D-05  0.000000D+00  0.301180D+00 -0.112534D+00  0.801800D+00
 Final forces over variables, Energy=-4.35162348D+02:
  1.06544777D-01-2.71655306D-02-5.56498515D-02 1.03814151D-06
 -2.37304332D-02 1.84359816D-02-1.36824764D-02 6.56143908D-03
 -1.25649924D-06-1.13136878D-02-4.03872114D-02-1.15823910D-03
  8.47166208D-02-1.44832579D-06-4.31697219D-02
 Leave Link  716 at Sat Mar  4 13:41:31 2017, MaxMem=   655360000 cpu:         0.1
 (Enter /mnt/software/gaussian/g09/l103.exe)

 GradGradGradGradGradGradGradGradGradGradGradGradGradGradGradGradGradGrad
 Berny optimization.
 Search for a local minimum.
 Step number   1 out of a maximum of    2
 All quantities printed in internal units (Hartrees-Bohrs-Radians)
 Second derivative matrix not updated -- analytic derivatives used.
 The second derivative matrix:
                          X1        Y1        Z1        X2        Y2
           X1           1.03591
           Y1          -0.26385   0.35743
           Z1          -0.09551   0.08611   1.48775
           X2          -0.51659   0.09598  -0.02759   0.64821
           Y2           0.08168  -0.12741   0.00478  -0.14465   0.07655
           Z2          -0.02707   0.00595  -0.12134   0.03354  -0.00463
           X3          -0.30844   0.11984   0.37268  -0.07477   0.03690
           Y3           0.12751  -0.12566  -0.20031   0.02863   0.02401
           Z3           0.37460  -0.18981  -0.70113   0.04048  -0.01558
           X4           0.00000   0.00000   0.00000   0.00000   0.00000
           Y4           0.00000   0.00000   0.00000   0.00000   0.00000
           Z4           0.00000   0.00000   0.00000   0.00000   0.00000
           X5          -0.21088   0.04803  -0.24959  -0.05685   0.02607
           Y5           0.05466  -0.10436   0.10942   0.02006   0.02684
           Z5          -0.25201   0.09774  -0.66529  -0.04643   0.01543
                          Z2        X3        Y3        Z3        X4
           Z2           0.12781
           X3           0.06577   0.34657
           Y3          -0.01996  -0.15788   0.06633
           Z3           0.00528  -0.43572   0.22091   0.82059
           X4           0.00000   0.00000   0.00000   0.00000   0.00000
           Y4           0.00000   0.00000   0.00000   0.00000   0.00000
           Z4           0.00000   0.00000   0.00000   0.00000   0.00000
           X5          -0.07224   0.03664   0.00175   0.02064   0.00000
           Y5           0.01864   0.00115   0.03532  -0.01553   0.00000
           Z5          -0.01176  -0.00273  -0.00064  -0.12475   0.00000
                          Y4        Z4        X5        Y5        Z5
           Y4           0.00000
           Z4           0.00000   0.00000
           X5           0.00000   0.00000   0.23110
           Y5           0.00000   0.00000  -0.07586   0.04220
           Z5           0.00000   0.00000   0.30118  -0.11253   0.80180
 ITU=  0
     Eigenvalues ---   -0.03578  -0.00493   0.00000   0.26982   0.27823
     Eigenvalues ---    0.34527   0.99868   1.77729   2.40584
 Eigenvalue     1 is  -3.58D-02 should be greater than     0.000000 Eigenvector:
                          Y3        Y5        X3        Y2        X5
   1                    0.77901  -0.51032   0.22074  -0.18686  -0.15278
                          Z4        X2        Z1        Z2        Y4
   1                   -0.08964  -0.06253   0.05878   0.05228  -0.04942
 Eigenvalue     2 is  -4.93D-03 should be greater than     0.000000 Eigenvector:
                          Y2        Y5        X5        Y3        X2
   1                    0.69119  -0.52963  -0.27358  -0.22638   0.22170
                          Z2        Z3        X4        X3        X1
   1                   -0.14708   0.10825  -0.10042   0.09447   0.07082
 Eigenvalue     3 is  -4.42D-07 should be greater than     0.000000 Eigenvector:
                          Y4        Z4        X4        Y2        Y1
   1                    0.76817  -0.32346   0.29974  -0.20130  -0.20128
                          Y3        Y5        Z2        Z1        Z3
   1                   -0.20127  -0.20125   0.08476   0.08475   0.08475
 Quadratic step=1.163D+00 exceeds max=3.000D-01 adjusted using Lamda=-1.724D-02.
 Angle between NR and scaled steps=  44.66 degrees.
 Angle between quadratic step and forces=  59.89 degrees.
 Linear search not attempted -- first point.
 TrRot= -0.003568 -0.005420  0.000769 -2.528268 -0.000103  2.528328
 MatCor failed.
 Variable       Old X    -DE/DX   Delta X   Delta X   Delta X     New X
                                 (Linear)    (Quad)   (Total)
    X1        0.28637   0.10654   0.00000   0.10525   0.10096   0.38733
    Y1        9.16729   0.01844   0.00000   0.15007   0.14455   9.31184
    Z1       -1.97456  -0.04039   0.00000  -0.01632  -0.01614  -1.99070
    X2        2.58707  -0.02717   0.00000   0.03401   0.02976   2.61683
    Y2        8.69984  -0.01368   0.00000   0.10387   0.09849   8.79833
    Z2       -1.82733  -0.00116   0.00000  -0.03571  -0.03569  -1.86302
    X3       -0.80418  -0.05565   0.00000  -0.03857  -0.04272  -0.84690
    Y3        9.74569   0.00656   0.00000  -0.13088  -0.13635   9.60934
    Z3       -0.15733   0.08472   0.00000   0.08381   0.08408  -0.07325
    X4       -8.37336   0.00000   0.00000  -0.01899  -0.02116  -8.39452
    Y4      -13.11392   0.00000   0.00000   0.01355   0.00807 -13.10585
    Z4        7.44341   0.00000   0.00000  -0.00332  -0.00107   7.44234
    X5       -0.59956  -0.02373   0.00000  -0.06238  -0.06685  -0.66642
    Y5        9.55170  -0.01131   0.00000  -0.10906  -0.11476   9.43694
    Z5       -4.01082  -0.04317   0.00000  -0.03145  -0.03118  -4.04200
         Item               Value     Threshold  Converged?
 Maximum Force            0.106545     0.000450     NO 
 RMS     Force            0.042521     0.000300     NO 
 Maximum Displacement     0.144553     0.001800     NO 
 RMS     Displacement     0.077383     0.001200     NO 
 Predicted change in Energy=-1.364142D-02
 GradGradGradGradGradGradGradGradGradGradGradGradGradGradGradGradGradGrad

 Leave Link  103 at Sat Mar  4 13:41:31 2017, MaxMem=   655360000 cpu:         0.1
 (Enter /mnt/software/gaussian/g09/l9999.exe)

 Test job not archived.
 1\1\GINC-TP-LINUX1\Freq\UHF\6-31G(d)\C1F4(1+,2)\THOMAS\04-Mar-2017\0\\
 #P UHF/6-31g* IOP(7/33=1) IOP(7/8=11) Freq\\Distorted Ethanol\\1,2\C,0
 .151538,4.851122,-1.044893\F,1.369019,4.603755,-0.966982\F,-0.425556,5
 .157199,-0.083255\F,-4.430992,-6.93959,3.938881\F,-0.317276,5.054544,-
 2.122436\\Version=ES64L-G09RevD.01\State=2-A\HF=-435.1623485\S2=0.7526
 73\S2-1=0.\S2A=0.750003\RMSD=2.999e-09\RMSF=4.252e-02\ZeroPoint=0.0165
 309\Thermal=0.0197371\Dipole=1.6636835,4.6507421,-1.9635034\DipoleDeri
 v=2.3933129,-0.3339463,-0.0079594,-0.3454475,1.3676948,0.052977,-0.007
 7633,0.0495863,2.5713897,-0.7091298,0.173635,-0.0348201,0.1099425,-0.1
 465413,0.0004687,-0.0368881,0.0067188,-0.2300578,-0.3712052,0.1003349,
 0.2607714,0.1427002,-0.1132645,-0.1621475,0.2659639,-0.1020631,-0.6447
 818,0.000082,-0.0000826,0.000038,-0.0000737,-0.0001096,0.000086,0.0000
 391,0.0000848,0.0000672,-0.3130599,0.060059,-0.21803,0.0928784,-0.1077
 795,0.1086159,-0.2213516,0.0456733,-0.6966173\Polar=12.155501,-1.04939
 04,8.5661283,-0.0022055,0.0588248,12.2148779\PolarDeriv=-1.0213146,-0.
 3622865,0.0278193,0.0416264,-0.0014296,-0.0507061,-0.5063292,-0.232369
 5,-1.0714697,-0.0013648,0.0546963,-0.558409,-0.0071768,-0.0094208,-0.0
 321936,-0.2250138,-0.4682023,0.1705015,5.0123666,-0.6023773,0.6883674,
 0.1662023,0.0080911,1.2684518,-0.4963866,1.3713808,-0.5273386,-0.00761
 11,0.0675246,-0.1914858,0.1277712,-0.0005937,0.0240146,1.6660456,-0.37
 72956,0.3047185,-2.2007764,0.5668263,-0.4294878,1.2505824,-0.174032,-0
 .6514139,0.5753988,-0.6336737,0.9470159,-0.1026849,0.996338,0.458435,1
 .0728283,-0.2189027,0.7200475,-0.7503572,0.4922169,3.7146837,-0.001625
 5,-0.0031679,-0.0021143,-0.0000436,0.0032575,0.003201,0.000451,-0.0069
 035,-0.0049485,-0.0014443,0.0085341,0.0040616,-0.0012299,0.0014536,0.0
 013572,0.0005831,-0.0023703,0.0005182,-1.7886501,0.4010054,-0.2845846,
 -1.4583675,0.164113,-0.5695327,0.426866,-0.4984342,0.6567409,0.1131051
 ,-1.1270931,0.2873982,-1.1921927,0.2274636,-0.7132256,-0.6912577,0.355
 6514,-4.1904218\HyperPolar=-12.2881041,-0.0614636,1.5938568,-0.2697848
 ,-0.8247636,-0.5882906,-2.5138415,6.449659,-2.7654813,4.7708582\PG=C01
  [X(C1F4)]\NImag=3\\1.03591331,-0.26384972,0.35742789,-0.09550651,0.08
 610712,1.48775364,-0.51658923,0.09597538,-0.02758737,0.64821202,0.0816
 8168,-0.12740618,0.00478202,-0.14465477,0.07654977,-0.02707463,0.00595
 429,-0.12133504,0.03354202,-0.00463344,0.12781341,-0.30844004,0.119840
 08,0.37268028,-0.07477138,0.03689791,0.06577043,0.34657399,0.12750966,
 -0.12565955,-0.20031305,0.02862615,0.02401186,-0.01995637,-0.15788479,
 0.06632603,0.37459554,-0.18980575,-0.70112953,0.04047652,-0.01557932,0
 .00528339,-0.43571590,0.22091229,0.82059425,0.00000096,-0.00000037,-0.
 00000021,-0.00000151,0.00000038,-0.00000004,0.00000035,0.00000006,-0.0
 0000065,-0.00000017,0.00000143,-0.00000074,-0.00000046,-0.00000253,0.0
 0000073,-0.00000021,0.00000052,-0.00000005,-0.00000097,-0.00000020,0.,
 -0.00000031,-0.00000035,0.00000051,0.00000024,-0.00000006,0.00000004,0
 .00000006,0.00000007,-0.00000008,0.00000014,0.00000024,-0.00000020,-0.
 21088500,0.04803462,-0.24958620,-0.05684990,0.02607480,-0.07223778,0.0
 3663708,0.00174892,0.02064449,0.00000037,0.00000078,-0.00000013,0.2310
 9745,0.05465694,-0.10436143,0.10942439,0.02005577,0.02684382,0.0186357
 4,0.00114629,0.03532170,-0.01552626,0.00000012,0.00000006,0.00000010,-
 0.07585912,0.04219584,-0.25201409,0.09774469,-0.66528958,-0.04643141,0
 .01543081,-0.01176180,-0.00273488,-0.00064294,-0.12474803,0.00000076,0
 .00000141,-0.00000026,0.30117962,-0.11253397,0.80179967\\-0.10654478,-
 0.01843598,0.04038721,0.02716553,0.01368248,0.00115824,0.05564985,-0.0
 0656144,-0.08471662,-0.00000104,0.00000126,0.00000145,0.02373043,0.011
 31369,0.04316972\\\@


 UNDER MOST GREENE GRASSE LY MOST GREATE SNAKES.
 -- PROVERBS AND REASONS OF THE YEAR 1585
           AS REPRINTED IN PAISLEY MAGAZINE 1828.
 Job cpu time:       0 days  0 hours  0 minutes 26.1 seconds.
 File lengths (MBytes):  RWF=     12 Int=      0 D2E=      0 Chk=      2 Scr=      1
 Normal termination of Gaussian 09 at Sat Mar  4 13:41:31 2017.
