 Entering Gaussian System, Link 0=g09
 Input=/home/thomas/cf4/DD-vMCG/dd_data/gwp13_V1_dd_data.com
 Output=/home/thomas/cf4/DD-vMCG/dd_data/gwp13_V1_dd_data.log
 Initial command:
 /mnt/software/gaussian/g09/l1.exe "/scratch/Gau-26549.inp" -scrdir="/scratch/"
 Entering Link 1 = /mnt/software/gaussian/g09/l1.exe PID=     26551.
  
 Copyright (c) 1988,1990,1992,1993,1995,1998,2003,2009,2013,
            Gaussian, Inc.  All Rights Reserved.
  
 This is part of the Gaussian(R) 09 program.  It is based on
 the Gaussian(R) 03 system (copyright 2003, Gaussian, Inc.),
 the Gaussian(R) 98 system (copyright 1998, Gaussian, Inc.),
 the Gaussian(R) 94 system (copyright 1995, Gaussian, Inc.),
 the Gaussian 92(TM) system (copyright 1992, Gaussian, Inc.),
 the Gaussian 90(TM) system (copyright 1990, Gaussian, Inc.),
 the Gaussian 88(TM) system (copyright 1988, Gaussian, Inc.),
 the Gaussian 86(TM) system (copyright 1986, Carnegie Mellon
 University), and the Gaussian 82(TM) system (copyright 1983,
 Carnegie Mellon University). Gaussian is a federally registered
 trademark of Gaussian, Inc.
  
 This software contains proprietary and confidential information,
 including trade secrets, belonging to Gaussian, Inc.
  
 This software is provided under written license and may be
 used, copied, transmitted, or stored only in accord with that
 written license.
  
 The following legend is applicable only to US Government
 contracts under FAR:
  
                    RESTRICTED RIGHTS LEGEND
  
 Use, reproduction and disclosure by the US Government is
 subject to restrictions as set forth in subparagraphs (a)
 and (c) of the Commercial Computer Software - Restricted
 Rights clause in FAR 52.227-19.
  
 Gaussian, Inc.
 340 Quinnipiac St., Bldg. 40, Wallingford CT 06492
  
  
 ---------------------------------------------------------------
 Warning -- This program may not be used in any manner that
 competes with the business of Gaussian, Inc. or will provide
 assistance to any competitor of Gaussian, Inc.  The licensee
 of this program is prohibited from giving any competitor of
 Gaussian, Inc. access to this program.  By using this program,
 the user acknowledges that Gaussian, Inc. is engaged in the
 business of creating and licensing software in the field of
 computational chemistry and represents and warrants to the
 licensee that it is not a competitor of Gaussian, Inc. and that
 it will not use this program in any manner prohibited above.
 ---------------------------------------------------------------
  

 Cite this work as:
 Gaussian 09, Revision D.01,
 M. J. Frisch, G. W. Trucks, H. B. Schlegel, G. E. Scuseria, 
 M. A. Robb, J. R. Cheeseman, G. Scalmani, V. Barone, B. Mennucci, 
 G. A. Petersson, H. Nakatsuji, M. Caricato, X. Li, H. P. Hratchian, 
 A. F. Izmaylov, J. Bloino, G. Zheng, J. L. Sonnenberg, M. Hada, 
 M. Ehara, K. Toyota, R. Fukuda, J. Hasegawa, M. Ishida, T. Nakajima, 
 Y. Honda, O. Kitao, H. Nakai, T. Vreven, J. A. Montgomery, Jr., 
 J. E. Peralta, F. Ogliaro, M. Bearpark, J. J. Heyd, E. Brothers, 
 K. N. Kudin, V. N. Staroverov, T. Keith, R. Kobayashi, J. Normand, 
 K. Raghavachari, A. Rendell, J. C. Burant, S. S. Iyengar, J. Tomasi, 
 M. Cossi, N. Rega, J. M. Millam, M. Klene, J. E. Knox, J. B. Cross, 
 V. Bakken, C. Adamo, J. Jaramillo, R. Gomperts, R. E. Stratmann, 
 O. Yazyev, A. J. Austin, R. Cammi, C. Pomelli, J. W. Ochterski, 
 R. L. Martin, K. Morokuma, V. G. Zakrzewski, G. A. Voth, 
 P. Salvador, J. J. Dannenberg, S. Dapprich, A. D. Daniels, 
 O. Farkas, J. B. Foresman, J. V. Ortiz, J. Cioslowski, 
 and D. J. Fox, Gaussian, Inc., Wallingford CT, 2013.
 
 ******************************************
 Gaussian 09:  ES64L-G09RevD.01 24-Apr-2013
                 4-Mar-2017 
 ******************************************
 %mem=5000MB
 %Nprocshared=6
 Will use up to    6 processors via shared memory.
 %chk=gwp13_V1_dd_data.chk
 ------------------------------------------
 #P UHF/6-31g* IOP(7/33=1) IOP(7/8=11) Freq
 ------------------------------------------
 1/10=4,30=1,38=1/1,3;
 2/12=2,17=6,18=5,40=1/2;
 3/5=1,6=6,7=1,11=2,16=1,25=1,30=1,71=2,116=2,140=1/1,2,3;
 4//1;
 5/5=2,38=5,98=1/2;
 8/6=4,10=90,11=11/1;
 10/13=10,15=4/2;
 11/6=3,8=1,9=11,15=111,16=1/1,2,10;
 10/6=1/2;
 6/7=2,8=2,9=2,10=2,18=1,28=1/1;
 7/8=11,10=1,25=1,33=1/1,2,3,16;
 1/10=4,30=1/3;
 99//99;
 Leave Link    1 at Sat Mar  4 13:29:26 2017, MaxMem=   655360000 cpu:         0.2
 (Enter /mnt/software/gaussian/g09/l101.exe)
 -----------------
 Distorted Ethanol
 -----------------
 Symbolic Z-matrix:
 Charge =  1 Multiplicity = 2
 6                     0.09988   4.84093  -0.98272 
 9                     1.35117   4.4721   -0.881 
 9                    -0.36407   5.4223   -0.10497 
 9                    -3.89207  -7.34422   3.56566 
 9                    -0.24167   5.06861  -2.11102 
 
 NAtoms=      5 NQM=        5 NQMF=       0 NMMI=      0 NMMIF=      0
                NMic=       0 NMicF=      0.
                    Isotopes and Nuclear Properties:
 (Nuclear quadrupole moments (NQMom) in fm**2, nuclear magnetic moments (NMagM)
  in nuclear magnetons)

  Atom         1           2           3           4           5
 IAtWgt=          12          19          19          19          19
 AtmWgt=  12.0000000  18.9984033  18.9984033  18.9984033  18.9984033
 NucSpn=           0           1           1           1           1
 AtZEff=   0.0000000   0.0000000   0.0000000   0.0000000   0.0000000
 NQMom=    0.0000000   0.0000000   0.0000000   0.0000000   0.0000000
 NMagM=    0.0000000   2.6288670   2.6288670   2.6288670   2.6288670
 AtZNuc=   6.0000000   9.0000000   9.0000000   9.0000000   9.0000000
 Leave Link  101 at Sat Mar  4 13:29:26 2017, MaxMem=   655360000 cpu:         0.4
 (Enter /mnt/software/gaussian/g09/l103.exe)

 GradGradGradGradGradGradGradGradGradGradGradGradGradGradGradGradGradGrad
 Berny optimization.
 Initialization pass.
 Trust Radius=3.00D-01 FncErr=1.00D-07 GrdErr=1.00D-07
 Number of steps in this run=      2 maximum allowed number of steps=      2.
 GradGradGradGradGradGradGradGradGradGradGradGradGradGradGradGradGradGrad

 Leave Link  103 at Sat Mar  4 13:29:26 2017, MaxMem=   655360000 cpu:         0.1
 (Enter /mnt/software/gaussian/g09/l202.exe)
                          Input orientation:                          
 ---------------------------------------------------------------------
 Center     Atomic      Atomic             Coordinates (Angstroms)
 Number     Number       Type             X           Y           Z
 ---------------------------------------------------------------------
      1          6           0        0.099880    4.840925   -0.982720
      2          9           0        1.351173    4.472105   -0.880999
      3          9           0       -0.364070    5.422303   -0.104970
      4          9           0       -3.892070   -7.344224    3.565658
      5          9           0       -0.241667    5.068608   -2.111018
 ---------------------------------------------------------------------
                    Distance matrix (angstroms):
                    1          2          3          4          5
     1  C    0.000000
     2  F    1.308476   0.000000
     3  F    1.150519   2.108828   0.000000
     4  F   13.605193  13.670771  13.744254   0.000000
     5  F    1.200646   2.099024   2.040664  14.128995   0.000000
 Stoichiometry    CF4(1+,2)
 Framework group  C1[X(CF4)]
 Deg. of freedom     9
 Full point group                 C1      NOp   1
 Largest Abelian subgroup         C1      NOp   1
 Largest concise Abelian subgroup C1      NOp   1
                         Standard orientation:                         
 ---------------------------------------------------------------------
 Center     Atomic      Atomic             Coordinates (Angstroms)
 Number     Number       Type             X           Y           Z
 ---------------------------------------------------------------------
      1          6           0        2.791977   -0.069356    0.019910
      2          9           0        2.799538    1.180932   -0.365875
      3          9           0        2.878921   -0.883646   -0.788216
      4          9           0      -10.813093   -0.013399    0.033921
      5          9           0        3.273316   -0.237651    1.106897
 ---------------------------------------------------------------------
 Rotational constants (GHZ):      6.3082246      0.1765563      0.1762599
 Leave Link  202 at Sat Mar  4 13:29:26 2017, MaxMem=   655360000 cpu:         0.0
 (Enter /mnt/software/gaussian/g09/l301.exe)
 Standard basis: 6-31G(d) (6D, 7F)
 Ernie: Thresh=  0.10000D-02 Tol=  0.10000D-05 Strict=F.
 There are    75 symmetry adapted cartesian basis functions of A   symmetry.
 There are    75 symmetry adapted basis functions of A   symmetry.
    75 basis functions,   140 primitive gaussians,    75 cartesian basis functions
    21 alpha electrons       20 beta electrons
       nuclear repulsion energy       143.6150774194 Hartrees.
 IExCor=    0 DFT=F Ex=HF Corr=None ExCW=0 ScaHFX=  1.000000
 ScaDFX=  1.000000  1.000000  1.000000  1.000000 ScalE2=  1.000000  1.000000
 IRadAn=      0 IRanWt=     -1 IRanGd=            0 ICorTp=0 IEmpDi=  4
 NAtoms=    5 NActive=    5 NUniq=    5 SFac= 1.00D+00 NAtFMM=   60 NAOKFM=F Big=F
 Integral buffers will be    131072 words long.
 Raffenetti 2 integral format.
 Two-electron integral symmetry is turned on.
 Leave Link  301 at Sat Mar  4 13:29:27 2017, MaxMem=   655360000 cpu:         0.2
 (Enter /mnt/software/gaussian/g09/l302.exe)
 NPDir=0 NMtPBC=     1 NCelOv=     1 NCel=       1 NClECP=     1 NCelD=      1
         NCelK=      1 NCelE2=     1 NClLst=     1 CellRange=     0.0.
 One-electron integrals computed using PRISM.
 NBasis=    75 RedAO= T EigKep=  3.62D-03  NBF=    75
 NBsUse=    75 1.00D-06 EigRej= -1.00D+00 NBFU=    75
 Leave Link  302 at Sat Mar  4 13:29:27 2017, MaxMem=   655360000 cpu:         0.8
 (Enter /mnt/software/gaussian/g09/l303.exe)
 DipDrv:  MaxL=1.
 Leave Link  303 at Sat Mar  4 13:29:27 2017, MaxMem=   655360000 cpu:         0.1
 (Enter /mnt/software/gaussian/g09/l401.exe)
 ExpMin= 1.69D-01 ExpMax= 7.00D+03 ExpMxC= 1.05D+03 IAcc=1 IRadAn=         1 AccDes= 0.00D+00
 Harris functional with IExCor=  205 and IRadAn=       1 diagonalized for initial guess.
 HarFok:  IExCor=  205 AccDes= 0.00D+00 IRadAn=         1 IDoV= 1 UseB2=F ITyADJ=14
 ICtDFT=  3500011 ScaDFX=  1.000000  1.000000  1.000000  1.000000
 FoFCou: FMM=F IPFlag=           0 FMFlag=      100000 FMFlg1=           0
         NFxFlg=           0 DoJE=T BraDBF=F KetDBF=T FulRan=T
         wScrn=  0.000000 ICntrl=     500 IOpCl=  0 I1Cent=   200000004 NGrid=           0
         NMat0=    1 NMatS0=      1 NMatT0=    0 NMatD0=    1 NMtDS0=    0 NMtDT0=    0
 Petite list used in FoFCou.
 Harris En= -435.009388556841    
 JPrj=0 DoOrth=F DoCkMO=F.
 Initial guess <Sx>= 0.0000 <Sy>= 0.0000 <Sz>= 0.5000 <S**2>= 0.7500 S= 0.5000
 Leave Link  401 at Sat Mar  4 13:29:27 2017, MaxMem=   655360000 cpu:         0.7
 (Enter /mnt/software/gaussian/g09/l502.exe)
 UHF open shell SCF:
 Using DIIS extrapolation, IDIIS=  1040.
 Integral symmetry usage will be decided dynamically.
 Keep R1 and R2 ints in memory in canonical form, NReq=8999643.
 IVT=       36430 IEndB=       36430 NGot=   655360000 MDV=   647198221
 LenX=   647198221 LenY=   647192155
 Requested convergence on RMS density matrix=1.00D-08 within 128 cycles.
 Requested convergence on MAX density matrix=1.00D-06.
 Requested convergence on             energy=1.00D-06.
 No special actions if energy rises.
 FoFCou: FMM=F IPFlag=           0 FMFlag=           0 FMFlg1=           0
         NFxFlg=           0 DoJE=F BraDBF=F KetDBF=F FulRan=T
         wScrn=  0.000000 ICntrl=     600 IOpCl=  0 I1Cent=           0 NGrid=           0
         NMat0=    1 NMatS0=   2850 NMatT0=    0 NMatD0=    1 NMtDS0=    0 NMtDT0=    0
 Symmetry not used in FoFCou.

 Cycle   1  Pass 1  IDiag  1:
 E= -435.061600547156    
 DIIS: error= 7.71D-02 at cycle   1 NSaved=   1.
 NSaved= 1 IEnMin= 1 EnMin= -435.061600547156     IErMin= 1 ErrMin= 7.71D-02
 ErrMax= 7.71D-02  0.00D+00 EMaxC= 1.00D-01 BMatC= 9.81D-01 BMatP= 9.81D-01
 IDIUse=3 WtCom= 2.29D-01 WtEn= 7.71D-01
 Coeff-Com:  0.100D+01
 Coeff-En:   0.100D+01
 Coeff:      0.100D+01
 Gap=     0.552 Goal=   None    Shift=    0.000
 Gap=     0.788 Goal=   None    Shift=    0.000
 GapD=    0.552 DampG=2.000 DampE=0.500 DampFc=1.0000 IDamp=-1.
 RMSDP=3.82D-03 MaxDP=5.94D-02              OVMax= 4.95D-02

 Cycle   2  Pass 1  IDiag  1:
 E= -435.127079640617     Delta-E=       -0.065479093461 Rises=F Damp=F
 DIIS: error= 1.38D-02 at cycle   2 NSaved=   2.
 NSaved= 2 IEnMin= 2 EnMin= -435.127079640617     IErMin= 2 ErrMin= 1.38D-02
 ErrMax= 1.38D-02  0.00D+00 EMaxC= 1.00D-01 BMatC= 5.01D-02 BMatP= 9.81D-01
 IDIUse=3 WtCom= 8.62D-01 WtEn= 1.38D-01
 Coeff-Com:  0.691D-01 0.931D+00
 Coeff-En:   0.000D+00 0.100D+01
 Coeff:      0.596D-01 0.940D+00
 Gap=     0.515 Goal=   None    Shift=    0.000
 Gap=     0.469 Goal=   None    Shift=    0.000
 RMSDP=1.28D-03 MaxDP=2.16D-02 DE=-6.55D-02 OVMax= 3.91D-02

 Cycle   3  Pass 1  IDiag  1:
 E= -435.134537023629     Delta-E=       -0.007457383012 Rises=F Damp=F
 DIIS: error= 5.60D-03 at cycle   3 NSaved=   3.
 NSaved= 3 IEnMin= 3 EnMin= -435.134537023629     IErMin= 3 ErrMin= 5.60D-03
 ErrMax= 5.60D-03  0.00D+00 EMaxC= 1.00D-01 BMatC= 1.57D-02 BMatP= 5.01D-02
 IDIUse=3 WtCom= 9.44D-01 WtEn= 5.60D-02
 Coeff-Com: -0.251D-01 0.334D+00 0.691D+00
 Coeff-En:   0.000D+00 0.000D+00 0.100D+01
 Coeff:     -0.237D-01 0.316D+00 0.708D+00
 Gap=     0.508 Goal=   None    Shift=    0.000
 Gap=     0.460 Goal=   None    Shift=    0.000
 RMSDP=4.15D-04 MaxDP=1.05D-02 DE=-7.46D-03 OVMax= 8.48D-03

 Cycle   4  Pass 1  IDiag  1:
 E= -435.136936966168     Delta-E=       -0.002399942539 Rises=F Damp=F
 DIIS: error= 1.21D-03 at cycle   4 NSaved=   4.
 NSaved= 4 IEnMin= 4 EnMin= -435.136936966168     IErMin= 4 ErrMin= 1.21D-03
 ErrMax= 1.21D-03  0.00D+00 EMaxC= 1.00D-01 BMatC= 3.01D-04 BMatP= 1.57D-02
 IDIUse=3 WtCom= 9.88D-01 WtEn= 1.21D-02
 Coeff-Com: -0.298D-02-0.604D-01-0.549D-01 0.112D+01
 Coeff-En:   0.000D+00 0.000D+00 0.000D+00 0.100D+01
 Coeff:     -0.295D-02-0.597D-01-0.543D-01 0.112D+01
 Gap=     0.508 Goal=   None    Shift=    0.000
 Gap=     0.458 Goal=   None    Shift=    0.000
 RMSDP=1.34D-04 MaxDP=2.10D-03 DE=-2.40D-03 OVMax= 3.33D-03

 Cycle   5  Pass 1  IDiag  1:
 E= -435.137064058014     Delta-E=       -0.000127091846 Rises=F Damp=F
 DIIS: error= 5.58D-04 at cycle   5 NSaved=   5.
 NSaved= 5 IEnMin= 5 EnMin= -435.137064058014     IErMin= 5 ErrMin= 5.58D-04
 ErrMax= 5.58D-04  0.00D+00 EMaxC= 1.00D-01 BMatC= 3.74D-05 BMatP= 3.01D-04
 IDIUse=3 WtCom= 9.94D-01 WtEn= 5.58D-03
 Coeff-Com:  0.318D-02-0.310D-01-0.708D-01-0.287D-01 0.113D+01
 Coeff-En:   0.000D+00 0.000D+00 0.000D+00 0.000D+00 0.100D+01
 Coeff:      0.316D-02-0.309D-01-0.704D-01-0.286D-01 0.113D+01
 Gap=     0.509 Goal=   None    Shift=    0.000
 Gap=     0.458 Goal=   None    Shift=    0.000
 RMSDP=5.17D-05 MaxDP=1.08D-03 DE=-1.27D-04 OVMax= 1.53D-03

 Cycle   6  Pass 1  IDiag  1:
 E= -435.137081768621     Delta-E=       -0.000017710607 Rises=F Damp=F
 DIIS: error= 1.40D-04 at cycle   6 NSaved=   6.
 NSaved= 6 IEnMin= 6 EnMin= -435.137081768621     IErMin= 6 ErrMin= 1.40D-04
 ErrMax= 1.40D-04  0.00D+00 EMaxC= 1.00D-01 BMatC= 3.96D-06 BMatP= 3.74D-05
 IDIUse=3 WtCom= 9.99D-01 WtEn= 1.40D-03
 Coeff-Com:  0.627D-03-0.279D-04-0.445D-02-0.867D-01 0.115D+00 0.976D+00
 Coeff-En:   0.000D+00 0.000D+00 0.000D+00 0.000D+00 0.000D+00 0.100D+01
 Coeff:      0.626D-03-0.279D-04-0.444D-02-0.866D-01 0.115D+00 0.976D+00
 Gap=     0.510 Goal=   None    Shift=    0.000
 Gap=     0.458 Goal=   None    Shift=    0.000
 RMSDP=1.44D-05 MaxDP=3.39D-04 DE=-1.77D-05 OVMax= 4.92D-04

 Cycle   7  Pass 1  IDiag  1:
 E= -435.137083177515     Delta-E=       -0.000001408894 Rises=F Damp=F
 DIIS: error= 4.76D-05 at cycle   7 NSaved=   7.
 NSaved= 7 IEnMin= 7 EnMin= -435.137083177515     IErMin= 7 ErrMin= 4.76D-05
 ErrMax= 4.76D-05  0.00D+00 EMaxC= 1.00D-01 BMatC= 5.84D-07 BMatP= 3.96D-06
 IDIUse=1 WtCom= 1.00D+00 WtEn= 0.00D+00
 Coeff-Com: -0.432D-03 0.508D-02 0.112D-01-0.680D-02-0.167D+00 0.177D+00
 Coeff-Com:  0.981D+00
 Coeff:     -0.432D-03 0.508D-02 0.112D-01-0.680D-02-0.167D+00 0.177D+00
 Coeff:      0.981D+00
 Gap=     0.510 Goal=   None    Shift=    0.000
 Gap=     0.458 Goal=   None    Shift=    0.000
 RMSDP=5.43D-06 MaxDP=1.12D-04 DE=-1.41D-06 OVMax= 1.38D-04

 Cycle   8  Pass 1  IDiag  1:
 E= -435.137083365755     Delta-E=       -0.000000188240 Rises=F Damp=F
 DIIS: error= 1.45D-05 at cycle   8 NSaved=   8.
 NSaved= 8 IEnMin= 8 EnMin= -435.137083365755     IErMin= 8 ErrMin= 1.45D-05
 ErrMax= 1.45D-05  0.00D+00 EMaxC= 1.00D-01 BMatC= 2.52D-08 BMatP= 5.84D-07
 IDIUse=1 WtCom= 1.00D+00 WtEn= 0.00D+00
 Coeff-Com:  0.916D-04-0.146D-02-0.316D-02 0.712D-02 0.394D-01-0.928D-01
 Coeff-Com: -0.292D+00 0.134D+01
 Coeff:      0.916D-04-0.146D-02-0.316D-02 0.712D-02 0.394D-01-0.928D-01
 Coeff:     -0.292D+00 0.134D+01
 Gap=     0.510 Goal=   None    Shift=    0.000
 Gap=     0.458 Goal=   None    Shift=    0.000
 RMSDP=1.70D-06 MaxDP=3.02D-05 DE=-1.88D-07 OVMax= 6.03D-05

 Cycle   9  Pass 1  IDiag  1:
 E= -435.137083380812     Delta-E=       -0.000000015057 Rises=F Damp=F
 DIIS: error= 4.48D-06 at cycle   9 NSaved=   9.
 NSaved= 9 IEnMin= 9 EnMin= -435.137083380812     IErMin= 9 ErrMin= 4.48D-06
 ErrMax= 4.48D-06  0.00D+00 EMaxC= 1.00D-01 BMatC= 2.43D-09 BMatP= 2.52D-08
 IDIUse=1 WtCom= 1.00D+00 WtEn= 0.00D+00
 Coeff-Com:  0.412D-04-0.545D-03-0.117D-02 0.117D-02 0.170D-01-0.213D-01
 Coeff-Com: -0.112D+00 0.129D+00 0.988D+00
 Coeff:      0.412D-04-0.545D-03-0.117D-02 0.117D-02 0.170D-01-0.213D-01
 Coeff:     -0.112D+00 0.129D+00 0.988D+00
 Gap=     0.510 Goal=   None    Shift=    0.000
 Gap=     0.458 Goal=   None    Shift=    0.000
 RMSDP=4.42D-07 MaxDP=7.21D-06 DE=-1.51D-08 OVMax= 1.49D-05

 Cycle  10  Pass 1  IDiag  1:
 E= -435.137083382146     Delta-E=       -0.000000001334 Rises=F Damp=F
 DIIS: error= 4.48D-06 at cycle  10 NSaved=  10.
 NSaved=10 IEnMin=10 EnMin= -435.137083382146     IErMin= 9 ErrMin= 4.48D-06
 ErrMax= 4.48D-06  0.00D+00 EMaxC= 1.00D-01 BMatC= 4.06D-10 BMatP= 2.43D-09
 IDIUse=1 WtCom= 1.00D+00 WtEn= 0.00D+00
 Coeff-Com: -0.111D-04 0.176D-03 0.391D-03-0.806D-03-0.498D-02 0.110D-01
 Coeff-Com:  0.332D-01-0.129D+00-0.100D+00 0.119D+01
 Coeff:     -0.111D-04 0.176D-03 0.391D-03-0.806D-03-0.498D-02 0.110D-01
 Coeff:      0.332D-01-0.129D+00-0.100D+00 0.119D+01
 Gap=     0.510 Goal=   None    Shift=    0.000
 Gap=     0.458 Goal=   None    Shift=    0.000
 RMSDP=2.11D-07 MaxDP=6.68D-06 DE=-1.33D-09 OVMax= 1.64D-05

 Cycle  11  Pass 1  IDiag  1:
 E= -435.137083382590     Delta-E=       -0.000000000444 Rises=F Damp=F
 DIIS: error= 4.48D-06 at cycle  11 NSaved=  11.
 NSaved=11 IEnMin=11 EnMin= -435.137083382590     IErMin= 9 ErrMin= 4.48D-06
 ErrMax= 4.48D-06  0.00D+00 EMaxC= 1.00D-01 BMatC= 2.45D-10 BMatP= 4.06D-10
 IDIUse=1 WtCom= 1.00D+00 WtEn= 0.00D+00
 Coeff-Com: -0.359D-05 0.509D-04 0.112D-03-0.155D-03-0.160D-02 0.280D-02
 Coeff-Com:  0.979D-02-0.218D-01-0.701D-01 0.136D+00 0.945D+00
 Coeff:     -0.359D-05 0.509D-04 0.112D-03-0.155D-03-0.160D-02 0.280D-02
 Coeff:      0.979D-02-0.218D-01-0.701D-01 0.136D+00 0.945D+00
 Gap=     0.510 Goal=   None    Shift=    0.000
 Gap=     0.458 Goal=   None    Shift=    0.000
 RMSDP=1.23D-07 MaxDP=5.43D-06 DE=-4.44D-10 OVMax= 1.30D-05

 Cycle  12  Pass 1  IDiag  1:
 E= -435.137083382859     Delta-E=       -0.000000000269 Rises=F Damp=F
 DIIS: error= 4.48D-06 at cycle  12 NSaved=  12.
 NSaved=12 IEnMin=12 EnMin= -435.137083382859     IErMin= 9 ErrMin= 4.48D-06
 ErrMax= 4.48D-06  0.00D+00 EMaxC= 1.00D-01 BMatC= 2.30D-10 BMatP= 2.45D-10
 IDIUse=1 WtCom= 1.00D+00 WtEn= 0.00D+00
 Coeff-Com:  0.145D-05-0.242D-04-0.527D-04 0.130D-03 0.626D-03-0.148D-02
 Coeff-Com: -0.466D-02 0.202D-01 0.662D-02-0.199D+00 0.142D+00 0.104D+01
 Coeff:      0.145D-05-0.242D-04-0.527D-04 0.130D-03 0.626D-03-0.148D-02
 Coeff:     -0.466D-02 0.202D-01 0.662D-02-0.199D+00 0.142D+00 0.104D+01
 Gap=     0.510 Goal=   None    Shift=    0.000
 Gap=     0.458 Goal=   None    Shift=    0.000
 RMSDP=1.43D-07 MaxDP=6.54D-06 DE=-2.69D-10 OVMax= 1.56D-05

 Cycle  13  Pass 1  IDiag  1:
 E= -435.137083383180     Delta-E=       -0.000000000320 Rises=F Damp=F
 DIIS: error= 4.48D-06 at cycle  13 NSaved=  13.
 NSaved=13 IEnMin=13 EnMin= -435.137083383180     IErMin= 9 ErrMin= 4.48D-06
 ErrMax= 4.48D-06  0.00D+00 EMaxC= 1.00D-01 BMatC= 2.27D-10 BMatP= 2.30D-10
 IDIUse=1 WtCom= 1.00D+00 WtEn= 0.00D+00
 Coeff-Com: -0.100D-06 0.200D-05 0.515D-05-0.161D-04-0.485D-04 0.150D-03
 Coeff-Com:  0.441D-03-0.284D-02 0.198D-02 0.344D-01-0.842D-01-0.204D+00
 Coeff-Com:  0.125D+01
 Coeff:     -0.100D-06 0.200D-05 0.515D-05-0.161D-04-0.485D-04 0.150D-03
 Coeff:      0.441D-03-0.284D-02 0.198D-02 0.344D-01-0.842D-01-0.204D+00
 Coeff:      0.125D+01
 Gap=     0.510 Goal=   None    Shift=    0.000
 Gap=     0.458 Goal=   None    Shift=    0.000
 RMSDP=1.53D-07 MaxDP=7.02D-06 DE=-3.20D-10 OVMax= 1.68D-05

 Cycle  14  Pass 1  IDiag  1:
 E= -435.137083383519     Delta-E=       -0.000000000339 Rises=F Damp=F
 DIIS: error= 4.48D-06 at cycle  14 NSaved=  14.
 NSaved=14 IEnMin=14 EnMin= -435.137083383519     IErMin= 9 ErrMin= 4.48D-06
 ErrMax= 4.48D-06  0.00D+00 EMaxC= 1.00D-01 BMatC= 2.27D-10 BMatP= 2.27D-10
 IDIUse=1 WtCom= 1.00D+00 WtEn= 0.00D+00
 Coeff-Com: -0.496D-07 0.945D-06 0.225D-05-0.685D-05-0.224D-04 0.677D-04
 Coeff-Com:  0.192D-03-0.118D-02 0.543D-03 0.142D-01-0.298D-01-0.806D-01
 Coeff-Com:  0.392D+00 0.704D+00
 Coeff:     -0.496D-07 0.945D-06 0.225D-05-0.685D-05-0.224D-04 0.677D-04
 Coeff:      0.192D-03-0.118D-02 0.543D-03 0.142D-01-0.298D-01-0.806D-01
 Coeff:      0.392D+00 0.704D+00
 Gap=     0.510 Goal=   None    Shift=    0.000
 Gap=     0.458 Goal=   None    Shift=    0.000
 RMSDP=8.41D-08 MaxDP=3.86D-06 DE=-3.39D-10 OVMax= 9.24D-06

 Cycle  15  Pass 1  IDiag  1:
 E= -435.137083383707     Delta-E=       -0.000000000188 Rises=F Damp=F
 DIIS: error= 4.48D-06 at cycle  15 NSaved=  15.
 NSaved=15 IEnMin=15 EnMin= -435.137083383707     IErMin= 9 ErrMin= 4.48D-06
 ErrMax= 4.48D-06  0.00D+00 EMaxC= 1.00D-01 BMatC= 2.27D-10 BMatP= 2.27D-10
 IDIUse=1 WtCom= 1.00D+00 WtEn= 0.00D+00
 Large coefficients: NSaved= 15 BigCof=   18.41 CofMax=   10.00 Det=-3.83D-16
 Inversion failed.  Reducing to 14 matrices.
 Large coefficients: NSaved= 14 BigCof=   16.57 CofMax=   10.00 Det=-4.19D-16
 Inversion failed.  Reducing to 13 matrices.
 Large coefficients: NSaved= 13 BigCof=   16.12 CofMax=   10.00 Det=-4.28D-16
 Inversion failed.  Reducing to 12 matrices.
 Large coefficients: NSaved= 12 BigCof=   14.37 CofMax=   10.00 Det=-5.07D-16
 Inversion failed.  Reducing to 11 matrices.
 Large coefficients: NSaved= 11 BigCof=   14.23 CofMax=   10.00 Det=-5.10D-16
 Inversion failed.  Reducing to 10 matrices.
 Large coefficients: NSaved= 10 BigCof=   14.23 CofMax=   10.00 Det=-5.11D-16
 Inversion failed.  Reducing to  9 matrices.
 Large coefficients: NSaved=  9 BigCof=   13.27 CofMax=   10.00 Det=-5.51D-16
 Inversion failed.  Reducing to  8 matrices.
 Large coefficients: NSaved=  8 BigCof=   13.26 CofMax=   10.00 Det=-5.52D-16
 Inversion failed.  Reducing to  7 matrices.
 Large coefficients: NSaved=  7 BigCof=   12.81 CofMax=   10.00 Det=-5.65D-16
 Inversion failed.  Reducing to  6 matrices.
 Large coefficients: NSaved=  6 BigCof=   12.30 CofMax=   10.00 Det=-5.97D-16
 Inversion failed.  Reducing to  5 matrices.
 Large coefficients: NSaved=  5 BigCof=   11.91 CofMax=   10.00 Det=-6.08D-16
 Inversion failed.  Reducing to  4 matrices.
 Large coefficients: NSaved=  4 BigCof=   11.23 CofMax=   10.00 Det=-6.81D-16
 Inversion failed.  Reducing to  3 matrices.
 Large coefficients: NSaved=  3 BigCof=   10.96 CofMax=   10.00 Det=-6.95D-16
 Inversion failed.  Reducing to  2 matrices.
 Coeff-Com:  0.736D+01-0.636D+01
 Coeff:      0.736D+01-0.636D+01
 Gap=     0.510 Goal=   None    Shift=    0.000
 Gap=     0.458 Goal=   None    Shift=    0.000
 RMSDP=5.03D-07 MaxDP=2.31D-05 DE=-1.88D-10 OVMax= 5.54D-05

 Cycle  16  Pass 1  IDiag  1:
 E= -435.137083382586     Delta-E=        0.000000001121 Rises=F Damp=F
 DIIS: error= 4.48D-06 at cycle  16 NSaved=   3.
 NSaved= 3 IEnMin= 2 EnMin= -435.137083383707     IErMin= 3 ErrMin= 4.48D-06
 ErrMax= 4.48D-06  0.00D+00 EMaxC= 1.00D-01 BMatC= 2.27D-10 BMatP= 2.27D-10
 IDIUse=1 WtCom= 1.00D+00 WtEn= 0.00D+00
 Large coefficients: NSaved=  3 BigCof=   20.64 CofMax=   10.00 Det=-4.08D-16
 Inversion failed.  Reducing to  2 matrices.
 Coeff-Com: -0.508D+01 0.608D+01
 Coeff:     -0.508D+01 0.608D+01
 Gap=     0.510 Goal=   None    Shift=    0.000
 Gap=     0.458 Goal=   None    Shift=    0.000
 RMSDP=2.44D-06 MaxDP=1.12D-04 DE= 1.12D-09 OVMax= 2.69D-04

 Cycle  17  Pass 1  IDiag  1:
 E= -435.137083377136     Delta-E=        0.000000005450 Rises=F Damp=F
 DIIS: error= 4.47D-06 at cycle  17 NSaved=   3.
 NSaved= 3 IEnMin= 1 EnMin= -435.137083383707     IErMin= 3 ErrMin= 4.47D-06
 ErrMax= 4.47D-06  0.00D+00 EMaxC= 1.00D-01 BMatC= 2.26D-10 BMatP= 2.27D-10
 IDIUse=1 WtCom= 1.00D+00 WtEn= 0.00D+00
 Coeff-Com:  0.328D+01-0.917D+01 0.690D+01
 Coeff:      0.328D+01-0.917D+01 0.690D+01
 Gap=     0.510 Goal=   None    Shift=    0.000
 Gap=     0.458 Goal=   None    Shift=    0.000
 RMSDP=1.26D-05 MaxDP=5.81D-04 DE= 5.45D-09 OVMax= 1.39D-03

 Cycle  18  Pass 1  IDiag  1:
 E= -435.137083349069     Delta-E=        0.000000028067 Rises=F Damp=F
 DIIS: error= 4.44D-06 at cycle  18 NSaved=   4.
 NSaved= 4 IEnMin= 1 EnMin= -435.137083383707     IErMin= 4 ErrMin= 4.44D-06
 ErrMax= 4.44D-06  0.00D+00 EMaxC= 1.00D-01 BMatC= 2.24D-10 BMatP= 2.26D-10
 IDIUse=1 WtCom= 1.00D+00 WtEn= 0.00D+00
 Large coefficients: NSaved=  4 BigCof=   42.34 CofMax=   10.00 Det=-2.50D-15
 Inversion failed.  Reducing to  3 matrices.
 Coeff-Com: -0.425D+01 0.364D+01 0.161D+01
 Coeff:     -0.425D+01 0.364D+01 0.161D+01
 Gap=     0.510 Goal=   None    Shift=    0.000
 Gap=     0.458 Goal=   None    Shift=    0.000
 RMSDP=2.01D-05 MaxDP=9.26D-04 DE= 2.81D-08 OVMax= 2.21D-03

 Cycle  19  Pass 1  IDiag  1:
 E= -435.137083304788     Delta-E=        0.000000044281 Rises=F Damp=F
 DIIS: error= 4.39D-06 at cycle  19 NSaved=   4.
 NSaved= 4 IEnMin= 1 EnMin= -435.137083383707     IErMin= 4 ErrMin= 4.39D-06
 ErrMax= 4.39D-06  0.00D+00 EMaxC= 1.00D-01 BMatC= 2.30D-10 BMatP= 2.24D-10
 IDIUse=1 WtCom= 1.00D+00 WtEn= 0.00D+00
 Coeff-Com: -0.434D+01 0.369D+01 0.168D+01-0.335D-01
 Coeff:     -0.434D+01 0.369D+01 0.168D+01-0.335D-01
 Gap=     0.510 Goal=   None    Shift=    0.000
 Gap=     0.458 Goal=   None    Shift=    0.000
 RMSDP=4.58D-08 MaxDP=2.10D-06 DE= 4.43D-08 OVMax= 5.04D-06

 Cycle  20  Pass 1  IDiag  1:
 E= -435.137083304688     Delta-E=        0.000000000100 Rises=F Damp=F
 DIIS: error= 4.39D-06 at cycle  20 NSaved=   5.
 NSaved= 5 IEnMin= 1 EnMin= -435.137083383707     IErMin= 5 ErrMin= 4.39D-06
 ErrMax= 4.39D-06  0.00D+00 EMaxC= 1.00D-01 BMatC= 2.30D-10 BMatP= 2.24D-10
 IDIUse=1 WtCom= 1.00D+00 WtEn= 0.00D+00
 Large coefficients: NSaved=  5 BigCof=  101.40 CofMax=   10.00 Det=-9.14D-16
 Inversion failed.  Reducing to  4 matrices.
 Large coefficients: NSaved=  4 BigCof=   88.09 CofMax=   10.00 Det=-1.39D-15
 Inversion failed.  Reducing to  3 matrices.
 Large coefficients: NSaved=  3 BigCof=   89.11 CofMax=   10.00 Det=-1.39D-15
 Inversion failed.  Reducing to  2 matrices.
 Large coefficients: NSaved=  2 BigCof=   30.95 CofMax=   10.00 Det=-1.15D-14
 Coeff-Com:  0.310D+02-0.300D+02
 Coeff:      0.310D+02-0.300D+02
 Gap=     0.510 Goal=   None    Shift=    0.000
 Gap=     0.458 Goal=   None    Shift=    0.000
 RMSDP=1.53D-06 MaxDP=7.02D-05 DE= 1.00D-10 OVMax= 1.68D-04

 Cycle  21  Pass 1  IDiag  1:
 E= -435.137083308038     Delta-E=       -0.000000003350 Rises=F Damp=F
 DIIS: error= 4.39D-06 at cycle  21 NSaved=   3.
 NSaved= 3 IEnMin= 3 EnMin= -435.137083308038     IErMin= 2 ErrMin= 4.39D-06
 ErrMax= 4.39D-06  0.00D+00 EMaxC= 1.00D-01 BMatC= 2.18D-10 BMatP= 2.30D-10
 IDIUse=1 WtCom= 1.00D+00 WtEn= 0.00D+00
 Coeff-Com:  0.787D+01-0.771D+01 0.838D+00
 Coeff:      0.787D+01-0.771D+01 0.838D+00
 Gap=     0.510 Goal=   None    Shift=    0.000
 Gap=     0.458 Goal=   None    Shift=    0.000
 RMSDP=2.25D-07 MaxDP=1.04D-05 DE=-3.35D-09 OVMax= 2.48D-05

 Cycle  22  Pass 1  IDiag  1:
 E= -435.137083308532     Delta-E=       -0.000000000494 Rises=F Damp=F
 DIIS: error= 4.39D-06 at cycle  22 NSaved=   4.
 NSaved= 4 IEnMin= 4 EnMin= -435.137083308532     IErMin= 2 ErrMin= 4.39D-06
 ErrMax= 4.39D-06  0.00D+00 EMaxC= 1.00D-01 BMatC= 2.18D-10 BMatP= 2.18D-10
 IDIUse=1 WtCom= 1.00D+00 WtEn= 0.00D+00
 Coeff-Com: -0.102D+01 0.981D+00 0.136D+00 0.905D+00
 Coeff:     -0.102D+01 0.981D+00 0.136D+00 0.905D+00
 Gap=     0.510 Goal=   None    Shift=    0.000
 Gap=     0.458 Goal=   None    Shift=    0.000
 RMSDP=1.07D-07 MaxDP=4.93D-06 DE=-4.94D-10 OVMax= 1.18D-05

 Cycle  23  Pass 1  IDiag  1:
 E= -435.137083308769     Delta-E=       -0.000000000237 Rises=F Damp=F
 DIIS: error= 4.39D-06 at cycle  23 NSaved=   5.
 NSaved= 5 IEnMin= 5 EnMin= -435.137083308769     IErMin= 2 ErrMin= 4.39D-06
 ErrMax= 4.39D-06  0.00D+00 EMaxC= 1.00D-01 BMatC= 2.18D-10 BMatP= 2.18D-10
 IDIUse=1 WtCom= 1.00D+00 WtEn= 0.00D+00
 Coeff-Com: -0.996D+00 0.970D+00 0.438D-01 0.503D+00 0.479D+00
 Coeff:     -0.996D+00 0.970D+00 0.438D-01 0.503D+00 0.479D+00
 Gap=     0.510 Goal=   None    Shift=    0.000
 Gap=     0.458 Goal=   None    Shift=    0.000
 RMSDP=4.70D-08 MaxDP=2.16D-06 DE=-2.37D-10 OVMax= 5.17D-06

 Cycle  24  Pass 1  IDiag  1:
 E= -435.137083308870     Delta-E=       -0.000000000101 Rises=F Damp=F
 DIIS: error= 4.39D-06 at cycle  24 NSaved=   6.
 NSaved= 6 IEnMin= 6 EnMin= -435.137083308870     IErMin= 2 ErrMin= 4.39D-06
 ErrMax= 4.39D-06  0.00D+00 EMaxC= 1.00D-01 BMatC= 2.18D-10 BMatP= 2.18D-10
 IDIUse=1 WtCom= 1.00D+00 WtEn= 0.00D+00
 Large coefficients: NSaved=  6 BigCof=   76.68 CofMax=   10.00 Det=-4.40D-17
 Inversion failed.  Reducing to  5 matrices.
 Large coefficients: NSaved=  5 BigCof=   12.76 CofMax=   10.00 Det=-2.37D-16
 Inversion failed.  Reducing to  4 matrices.
 Coeff-Com: -0.933D-01 0.355D+00 0.808D+01-0.734D+01
 Coeff:     -0.933D-01 0.355D+00 0.808D+01-0.734D+01
 Gap=     0.510 Goal=   None    Shift=    0.000
 Gap=     0.458 Goal=   None    Shift=    0.000
 RMSDP=2.86D-07 MaxDP=1.31D-05 DE=-1.01D-10 OVMax= 3.14D-05

 Cycle  25  Pass 1  IDiag  1:
 E= -435.137083308244     Delta-E=        0.000000000626 Rises=F Damp=F
 DIIS: error= 4.39D-06 at cycle  25 NSaved=   5.
 NSaved= 5 IEnMin= 4 EnMin= -435.137083308870     IErMin= 1 ErrMin= 4.39D-06
 ErrMax= 4.39D-06  0.00D+00 EMaxC= 1.00D-01 BMatC= 2.18D-10 BMatP= 2.18D-10
 IDIUse=1 WtCom= 1.00D+00 WtEn= 0.00D+00
 Large coefficients: NSaved=  5 BigCof=   16.04 CofMax=   10.00 Det=-3.67D-16
 Inversion failed.  Reducing to  4 matrices.
 Large coefficients: NSaved=  4 BigCof=   10.19 CofMax=   10.00 Det=-3.94D-16
 Inversion failed.  Reducing to  3 matrices.
 Coeff-Com: -0.260D+01-0.225D+01 0.585D+01
 Coeff:     -0.260D+01-0.225D+01 0.585D+01
 Gap=     0.510 Goal=   None    Shift=    0.000
 Gap=     0.458 Goal=   None    Shift=    0.000
 RMSDP=1.15D-06 MaxDP=5.29D-05 DE= 6.26D-10 OVMax= 1.26D-04

 Cycle  26  Pass 1  IDiag  1:
 E= -435.137083305735     Delta-E=        0.000000002509 Rises=F Damp=F
 DIIS: error= 4.39D-06 at cycle  26 NSaved=   4.
 NSaved= 4 IEnMin= 2 EnMin= -435.137083308870     IErMin= 4 ErrMin= 4.39D-06
 ErrMax= 4.39D-06  0.00D+00 EMaxC= 1.00D-01 BMatC= 2.18D-10 BMatP= 2.18D-10
 IDIUse=1 WtCom= 1.00D+00 WtEn= 0.00D+00
 Large coefficients: NSaved=  4 BigCof=  153.56 CofMax=   10.00 Det=-1.20D-16
 Inversion failed.  Reducing to  3 matrices.
 Coeff-Com: -0.453D+01-0.108D+01 0.661D+01
 Coeff:     -0.453D+01-0.108D+01 0.661D+01
 Gap=     0.510 Goal=   None    Shift=    0.000
 Gap=     0.458 Goal=   None    Shift=    0.000
 RMSDP=7.63D-06 MaxDP=3.51D-04 DE= 2.51D-09 OVMax= 8.39D-04

 Cycle  27  Pass 1  IDiag  1:
 E= -435.137083289082     Delta-E=        0.000000016653 Rises=F Damp=F
 DIIS: error= 4.37D-06 at cycle  27 NSaved=   4.
 NSaved= 4 IEnMin= 1 EnMin= -435.137083308870     IErMin= 4 ErrMin= 4.37D-06
 ErrMax= 4.37D-06  0.00D+00 EMaxC= 1.00D-01 BMatC= 2.16D-10 BMatP= 2.18D-10
 IDIUse=1 WtCom= 1.00D+00 WtEn= 0.00D+00
 Large coefficients: NSaved=  4 BigCof=   77.15 CofMax=   10.00 Det=-1.29D-15
 Inversion failed.  Reducing to  3 matrices.
 Coeff-Com: -0.453D+01 0.271D+01 0.282D+01
 Coeff:     -0.453D+01 0.271D+01 0.282D+01
 Gap=     0.510 Goal=   None    Shift=    0.000
 Gap=     0.458 Goal=   None    Shift=    0.000
 RMSDP=2.03D-05 MaxDP=9.34D-04 DE= 1.67D-08 OVMax= 2.23D-03

 Cycle  28  Pass 1  IDiag  1:
 E= -435.137083245209     Delta-E=        0.000000043874 Rises=F Damp=F
 DIIS: error= 4.32D-06 at cycle  28 NSaved=   4.
 NSaved= 4 IEnMin= 1 EnMin= -435.137083308870     IErMin= 4 ErrMin= 4.32D-06
 ErrMax= 4.32D-06  0.00D+00 EMaxC= 1.00D-01 BMatC= 2.17D-10 BMatP= 2.16D-10
 IDIUse=1 WtCom= 1.00D+00 WtEn= 0.00D+00
 Coeff-Com: -0.457D+01 0.299D+01 0.248D+01 0.102D+00
 Coeff:     -0.457D+01 0.299D+01 0.248D+01 0.102D+00
 Gap=     0.510 Goal=   None    Shift=    0.000
 Gap=     0.458 Goal=   None    Shift=    0.000
 RMSDP=2.81D-07 MaxDP=1.30D-05 DE= 4.39D-08 OVMax= 3.09D-05

 Cycle  29  Pass 1  IDiag  1:
 E= -435.137083244605     Delta-E=        0.000000000603 Rises=F Damp=F
 DIIS: error= 4.32D-06 at cycle  29 NSaved=   5.
 NSaved= 5 IEnMin= 1 EnMin= -435.137083308870     IErMin= 5 ErrMin= 4.32D-06
 ErrMax= 4.32D-06  0.00D+00 EMaxC= 1.00D-01 BMatC= 2.17D-10 BMatP= 2.16D-10
 IDIUse=1 WtCom= 1.00D+00 WtEn= 0.00D+00
 Large coefficients: NSaved=  5 BigCof=   78.06 CofMax=   10.00 Det=-2.63D-15
 Inversion failed.  Reducing to  4 matrices.
 Large coefficients: NSaved=  4 BigCof=   78.90 CofMax=   10.00 Det=-2.63D-15
 Inversion failed.  Reducing to  3 matrices.
 Large coefficients: NSaved=  3 BigCof=   66.72 CofMax=   10.00 Det=-3.53D-15
 Inversion failed.  Reducing to  2 matrices.
 Large coefficients: NSaved=  2 BigCof=   19.24 CofMax=   10.00 Det=-1.85D-14
 Coeff-Com: -0.182D+02 0.192D+02
 Coeff:     -0.182D+02 0.192D+02
 Gap=     0.510 Goal=   None    Shift=    0.000
 Gap=     0.458 Goal=   None    Shift=    0.000
 RMSDP=5.02D-06 MaxDP=2.31D-04 DE= 6.03D-10 OVMax= 5.51D-04

 Cycle  30  Pass 1  IDiag  1:
 E= -435.137083233843     Delta-E=        0.000000010762 Rises=F Damp=F
 DIIS: error= 4.30D-06 at cycle  30 NSaved=   3.
 NSaved= 3 IEnMin= 1 EnMin= -435.137083245209     IErMin= 3 ErrMin= 4.30D-06
 ErrMax= 4.30D-06  0.00D+00 EMaxC= 1.00D-01 BMatC= 2.10D-10 BMatP= 2.17D-10
 IDIUse=1 WtCom= 1.00D+00 WtEn= 0.00D+00
 Coeff-Com: -0.514D+01 0.515D+01 0.987D+00
 Coeff:     -0.514D+01 0.515D+01 0.987D+00
 Gap=     0.510 Goal=   None    Shift=    0.000
 Gap=     0.458 Goal=   None    Shift=    0.000
 RMSDP=1.27D-06 MaxDP=5.84D-05 DE= 1.08D-08 OVMax= 1.39D-04

 Cycle  31  Pass 1  IDiag  1:
 E= -435.137083231130     Delta-E=        0.000000002713 Rises=F Damp=F
 DIIS: error= 4.30D-06 at cycle  31 NSaved=   4.
 NSaved= 4 IEnMin= 1 EnMin= -435.137083245209     IErMin= 4 ErrMin= 4.30D-06
 ErrMax= 4.30D-06  0.00D+00 EMaxC= 1.00D-01 BMatC= 2.09D-10 BMatP= 2.10D-10
 IDIUse=1 WtCom= 1.00D+00 WtEn= 0.00D+00
 Coeff-Com:  0.452D+01-0.488D+01-0.202D+00 0.156D+01
 Coeff:      0.452D+01-0.488D+01-0.202D+00 0.156D+01
 Gap=     0.510 Goal=   None    Shift=    0.000
 Gap=     0.458 Goal=   None    Shift=    0.000
 RMSDP=1.15D-06 MaxDP=5.31D-05 DE= 2.71D-09 OVMax= 1.27D-04

 Cycle  32  Pass 1  IDiag  1:
 E= -435.137083228666     Delta-E=        0.000000002464 Rises=F Damp=F
 DIIS: error= 4.30D-06 at cycle  32 NSaved=   5.
 NSaved= 5 IEnMin= 1 EnMin= -435.137083245209     IErMin= 5 ErrMin= 4.30D-06
 ErrMax= 4.30D-06  0.00D+00 EMaxC= 1.00D-01 BMatC= 2.09D-10 BMatP= 2.09D-10
 IDIUse=1 WtCom= 1.00D+00 WtEn= 0.00D+00
 Coeff-Com: -0.319D+00 0.420D+00-0.645D+00-0.653D+00 0.220D+01
 Coeff:     -0.319D+00 0.420D+00-0.645D+00-0.653D+00 0.220D+01
 Gap=     0.510 Goal=   None    Shift=    0.000
 Gap=     0.458 Goal=   None    Shift=    0.000
 RMSDP=1.54D-06 MaxDP=7.12D-05 DE= 2.46D-09 OVMax= 1.70D-04

 Cycle  33  Pass 1  IDiag  1:
 E= -435.137083225364     Delta-E=        0.000000003302 Rises=F Damp=F
 DIIS: error= 4.29D-06 at cycle  33 NSaved=   6.
 NSaved= 6 IEnMin= 1 EnMin= -435.137083245209     IErMin= 6 ErrMin= 4.29D-06
 ErrMax= 4.29D-06  0.00D+00 EMaxC= 1.00D-01 BMatC= 2.08D-10 BMatP= 2.09D-10
 IDIUse=1 WtCom= 1.00D+00 WtEn= 0.00D+00
 Large coefficients: NSaved=  6 BigCof=   99.07 CofMax=   10.00 Det=-3.72D-16
 Inversion failed.  Reducing to  5 matrices.
 Large coefficients: NSaved=  5 BigCof=   10.99 CofMax=   10.00 Det=-2.33D-15
 Inversion failed.  Reducing to  4 matrices.
 Coeff-Com: -0.407D+01 0.414D+01-0.299D+01 0.392D+01
 Coeff:     -0.407D+01 0.414D+01-0.299D+01 0.392D+01
 Gap=     0.510 Goal=   None    Shift=    0.000
 Gap=     0.458 Goal=   None    Shift=    0.000
 RMSDP=5.02D-06 MaxDP=2.32D-04 DE= 3.30D-09 OVMax= 5.52D-04

 Cycle  34  Pass 1  IDiag  1:
 E= -435.137083214648     Delta-E=        0.000000010716 Rises=F Damp=F
 DIIS: error= 4.28D-06 at cycle  34 NSaved=   5.
 NSaved= 5 IEnMin= 1 EnMin= -435.137083245209     IErMin= 5 ErrMin= 4.28D-06
 ErrMax= 4.28D-06  0.00D+00 EMaxC= 1.00D-01 BMatC= 2.07D-10 BMatP= 2.08D-10
 IDIUse=1 WtCom= 1.00D+00 WtEn= 0.00D+00
 Large coefficients: NSaved=  5 BigCof=   59.57 CofMax=   10.00 Det=-1.51D-15
 Inversion failed.  Reducing to  4 matrices.
 Large coefficients: NSaved=  4 BigCof=   14.48 CofMax=   10.00 Det=-3.19D-15
 Inversion failed.  Reducing to  3 matrices.
 Coeff-Com: -0.237D+00-0.281D+01 0.405D+01
 Coeff:     -0.237D+00-0.281D+01 0.405D+01
 Gap=     0.510 Goal=   None    Shift=    0.000
 Gap=     0.458 Goal=   None    Shift=    0.000
 RMSDP=1.74D-05 MaxDP=8.02D-04 DE= 1.07D-08 OVMax= 1.91D-03

 Cycle  35  Pass 1  IDiag  1:
 E= -435.137083177805     Delta-E=        0.000000036843 Rises=F Damp=F
 DIIS: error= 4.23D-06 at cycle  35 NSaved=   4.
 NSaved= 4 IEnMin= 1 EnMin= -435.137083245209     IErMin= 4 ErrMin= 4.23D-06
 ErrMax= 4.23D-06  0.00D+00 EMaxC= 1.00D-01 BMatC= 2.07D-10 BMatP= 2.07D-10
 IDIUse=1 WtCom= 1.00D+00 WtEn= 0.00D+00
 Coeff-Com: -0.125D+01-0.662D+01 0.685D+01 0.202D+01
 Coeff:     -0.125D+01-0.662D+01 0.685D+01 0.202D+01
 Gap=     0.510 Goal=   None    Shift=    0.000
 Gap=     0.458 Goal=   None    Shift=    0.000
 RMSDP=6.87D-05 MaxDP=3.18D-03 DE= 3.68D-08 OVMax= 7.55D-03

 Cycle  36  Pass 1  IDiag  1:
 E= -435.137083035725     Delta-E=        0.000000142080 Rises=F Damp=F
 DIIS: error= 4.22D-06 at cycle  36 NSaved=   5.
 NSaved= 5 IEnMin= 1 EnMin= -435.137083245209     IErMin= 5 ErrMin= 4.22D-06
 ErrMax= 4.22D-06  0.00D+00 EMaxC= 1.00D-01 BMatC= 9.71D-10 BMatP= 2.07D-10
 IDIUse=1 WtCom= 1.00D+00 WtEn= 0.00D+00
 Large coefficients: NSaved=  5 BigCof=   39.02 CofMax=   10.00 Det=-4.76D-14
 Inversion failed.  Reducing to  4 matrices.
 Coeff-Com: -0.140D+00-0.943D+00 0.219D+01-0.110D+00
 Coeff:     -0.140D+00-0.943D+00 0.219D+01-0.110D+00
 Gap=     0.510 Goal=   None    Shift=    0.000
 Gap=     0.458 Goal=   None    Shift=    0.000
 RMSDP=5.08D-05 MaxDP=2.35D-03 DE= 1.42D-07 OVMax= 5.59D-03

 Cycle  37  Pass 1  IDiag  1:
 E= -435.137083140248     Delta-E=       -0.000000104523 Rises=F Damp=F
 DIIS: error= 4.19D-06 at cycle  37 NSaved=   5.
 NSaved= 5 IEnMin= 1 EnMin= -435.137083245209     IErMin= 5 ErrMin= 4.19D-06
 ErrMax= 4.19D-06  0.00D+00 EMaxC= 1.00D-01 BMatC= 2.31D-10 BMatP= 2.07D-10
 IDIUse=1 WtCom= 1.00D+00 WtEn= 0.00D+00
 Large coefficients: NSaved=  5 BigCof=   53.39 CofMax=   10.00 Det=-4.03D-14
 Inversion failed.  Reducing to  4 matrices.
 Coeff-Com: -0.137D+01 0.740D+00-0.244D+00 0.187D+01
 Coeff:     -0.137D+01 0.740D+00-0.244D+00 0.187D+01
 Gap=     0.510 Goal=   None    Shift=    0.000
 Gap=     0.458 Goal=   None    Shift=    0.000
 RMSDP=2.56D-05 MaxDP=1.18D-03 DE=-1.05D-07 OVMax= 2.81D-03

 Cycle  38  Pass 1  IDiag  1:
 E= -435.137083087307     Delta-E=        0.000000052941 Rises=F Damp=F
 DIIS: error= 4.12D-06 at cycle  38 NSaved=   5.
 NSaved= 5 IEnMin= 1 EnMin= -435.137083245209     IErMin= 5 ErrMin= 4.12D-06
 ErrMax= 4.12D-06  0.00D+00 EMaxC= 1.00D-01 BMatC= 3.70D-10 BMatP= 2.08D-10
 IDIUse=1 WtCom= 1.00D+00 WtEn= 0.00D+00
 Large coefficients: NSaved=  5 BigCof=   28.40 CofMax=   10.00 Det=-1.34D-13
 Inversion failed.  Reducing to  4 matrices.
 Coeff-Com: -0.157D+01 0.168D+01 0.975D+00-0.793D-01
 Coeff:     -0.157D+01 0.168D+01 0.975D+00-0.793D-01
 Gap=     0.510 Goal=   None    Shift=    0.000
 Gap=     0.458 Goal=   None    Shift=    0.000
 RMSDP=1.73D-05 MaxDP=8.03D-04 DE= 5.29D-08 OVMax= 1.91D-03

 Cycle  39  Pass 1  IDiag  1:
 E= -435.137083123140     Delta-E=       -0.000000035833 Rises=F Damp=F
 DIIS: error= 4.17D-06 at cycle  39 NSaved=   5.
 NSaved= 5 IEnMin= 1 EnMin= -435.137083245209     IErMin= 4 ErrMin= 4.12D-06
 ErrMax= 4.17D-06  0.00D+00 EMaxC= 1.00D-01 BMatC= 2.21D-10 BMatP= 2.08D-10
 IDIUse=1 WtCom= 1.00D+00 WtEn= 0.00D+00
 Coeff-Com:  0.210D+01-0.635D+01 0.743D+00-0.356D+01 0.807D+01
 Coeff:      0.210D+01-0.635D+01 0.743D+00-0.356D+01 0.807D+01
 Gap=     0.510 Goal=   None    Shift=    0.000
 Gap=     0.458 Goal=   None    Shift=    0.000
 RMSDP=1.19D-04 MaxDP=5.52D-03 DE=-3.58D-08 OVMax= 1.31D-02

 Cycle  40  Pass 1  IDiag  1:
 E= -435.137082883722     Delta-E=        0.000000239418 Rises=F Damp=F
 DIIS: error= 1.56D-05 at cycle  40 NSaved=   6.
 NSaved= 6 IEnMin= 1 EnMin= -435.137083245209     IErMin= 4 ErrMin= 4.12D-06
 ErrMax= 1.56D-05  0.00D+00 EMaxC= 1.00D-01 BMatC= 8.21D-09 BMatP= 2.08D-10
 IDIUse=1 WtCom= 1.00D+00 WtEn= 0.00D+00
 Large coefficients: NSaved=  6 BigCof=   30.64 CofMax=   10.00 Det=-5.66D-14
 Inversion failed.  Reducing to  5 matrices.
 Large coefficients: NSaved=  5 BigCof=   11.72 CofMax=   10.00 Det=-8.40D-13
 Inversion failed.  Reducing to  4 matrices.
 Coeff-Com:  0.263D+01-0.605D+01 0.474D+01-0.319D+00
 Coeff:      0.263D+01-0.605D+01 0.474D+01-0.319D+00
 Gap=     0.510 Goal=   None    Shift=    0.000
 Gap=     0.458 Goal=   None    Shift=    0.000
 RMSDP=1.52D-05 MaxDP=7.07D-04 DE= 2.39D-07 OVMax= 1.67D-03

 Cycle  41  Pass 1  IDiag  1:
 E= -435.137082913368     Delta-E=       -0.000000029647 Rises=F Damp=F
 DIIS: error= 1.39D-05 at cycle  41 NSaved=   5.
 NSaved= 5 IEnMin= 1 EnMin= -435.137083245209     IErMin= 3 ErrMin= 4.17D-06
 ErrMax= 1.39D-05  0.00D+00 EMaxC= 1.00D-01 BMatC= 6.66D-09 BMatP= 2.08D-10
 IDIUse=1 WtCom= 1.00D+00 WtEn= 0.00D+00
 Large coefficients: NSaved=  5 BigCof=   11.58 CofMax=   10.00 Det=-5.39D-13
 Inversion failed.  Reducing to  4 matrices.
 Coeff-Com: -0.119D+01 0.210D+01-0.468D+00 0.559D+00
 Coeff:     -0.119D+01 0.210D+01-0.468D+00 0.559D+00
 Gap=     0.510 Goal=   None    Shift=    0.000
 Gap=     0.458 Goal=   None    Shift=    0.000
 RMSDP=1.35D-04 MaxDP=6.24D-03 DE=-2.96D-08 OVMax= 1.48D-02

 Cycle  42  Pass 1  IDiag  1:
 E= -435.137083187951     Delta-E=       -0.000000274583 Rises=F Damp=F
 DIIS: error= 4.25D-06 at cycle  42 NSaved=   5.
 NSaved= 5 IEnMin= 1 EnMin= -435.137083245209     IErMin= 5 ErrMin= 4.25D-06
 ErrMax= 4.25D-06  0.00D+00 EMaxC= 1.00D-01 BMatC= 2.09D-10 BMatP= 2.08D-10
 IDIUse=1 WtCom= 1.00D+00 WtEn= 0.00D+00
 Large coefficients: NSaved=  5 BigCof=   16.33 CofMax=   10.00 Det=-1.11D-13
 Inversion failed.  Reducing to  4 matrices.
 Coeff-Com:  0.362D-01-0.118D+01-0.559D-01 0.220D+01
 Coeff:      0.362D-01-0.118D+01-0.559D-01 0.220D+01
 Gap=     0.510 Goal=   None    Shift=    0.000
 Gap=     0.458 Goal=   None    Shift=    0.000
 RMSDP=1.22D-05 MaxDP=5.64D-04 DE=-2.75D-07 OVMax= 1.34D-03

 Cycle  43  Pass 1  IDiag  1:
 E= -435.137083162208     Delta-E=        0.000000025743 Rises=F Damp=F
 DIIS: error= 4.22D-06 at cycle  43 NSaved=   5.
 NSaved= 5 IEnMin= 1 EnMin= -435.137083245209     IErMin= 5 ErrMin= 4.22D-06
 ErrMax= 4.22D-06  0.00D+00 EMaxC= 1.00D-01 BMatC= 2.37D-10 BMatP= 2.08D-10
 IDIUse=1 WtCom= 1.00D+00 WtEn= 0.00D+00
 Large coefficients: NSaved=  5 BigCof=   16.09 CofMax=   10.00 Det=-9.08D-14
 Inversion failed.  Reducing to  4 matrices.
 Coeff-Com: -0.120D+01 0.123D+01 0.590D+00 0.380D+00
 Coeff:     -0.120D+01 0.123D+01 0.590D+00 0.380D+00
 Gap=     0.510 Goal=   None    Shift=    0.000
 Gap=     0.458 Goal=   None    Shift=    0.000
 RMSDP=2.94D-06 MaxDP=1.36D-04 DE= 2.57D-08 OVMax= 3.23D-04

 Cycle  44  Pass 1  IDiag  1:
 E= -435.137083156055     Delta-E=        0.000000006153 Rises=F Damp=F
 DIIS: error= 4.21D-06 at cycle  44 NSaved=   5.
 NSaved= 5 IEnMin= 1 EnMin= -435.137083245209     IErMin= 5 ErrMin= 4.21D-06
 ErrMax= 4.21D-06  0.00D+00 EMaxC= 1.00D-01 BMatC= 2.07D-10 BMatP= 2.08D-10
 IDIUse=1 WtCom= 1.00D+00 WtEn= 0.00D+00
 Coeff-Com:  0.118D+01-0.202D+01-0.258D+01-0.230D+01 0.672D+01
 Coeff:      0.118D+01-0.202D+01-0.258D+01-0.230D+01 0.672D+01
 Gap=     0.510 Goal=   None    Shift=    0.000
 Gap=     0.458 Goal=   None    Shift=    0.000
 RMSDP=6.22D-05 MaxDP=2.88D-03 DE= 6.15D-09 OVMax= 6.84D-03

 Cycle  45  Pass 1  IDiag  1:
 E= -435.137083028125     Delta-E=        0.000000127930 Rises=F Damp=F
 DIIS: error= 4.05D-06 at cycle  45 NSaved=   6.
 NSaved= 6 IEnMin= 1 EnMin= -435.137083245209     IErMin= 6 ErrMin= 4.05D-06
 ErrMax= 4.05D-06  0.00D+00 EMaxC= 1.00D-01 BMatC= 5.17D-10 BMatP= 2.07D-10
 IDIUse=1 WtCom= 1.00D+00 WtEn= 0.00D+00
 Large coefficients: NSaved=  6 BigCof=   17.24 CofMax=   10.00 Det=-1.48D-14
 Inversion failed.  Reducing to  5 matrices.
 Coeff-Com:  0.380D+00-0.311D+01 0.438D+00 0.390D+01-0.606D+00
 Coeff:      0.380D+00-0.311D+01 0.438D+00 0.390D+01-0.606D+00
 Gap=     0.510 Goal=   None    Shift=    0.000
 Gap=     0.458 Goal=   None    Shift=    0.000
 RMSDP=2.06D-05 MaxDP=9.59D-04 DE= 1.28D-07 OVMax= 2.27D-03

 Cycle  46  Pass 1  IDiag  1:
 E= -435.137083069942     Delta-E=       -0.000000041817 Rises=F Damp=F
 DIIS: error= 4.10D-06 at cycle  46 NSaved=   6.
 NSaved= 6 IEnMin= 1 EnMin= -435.137083245209     IErMin= 5 ErrMin= 4.05D-06
 ErrMax= 4.10D-06  0.00D+00 EMaxC= 1.00D-01 BMatC= 8.68D-10 BMatP= 2.07D-10
 IDIUse=1 WtCom= 1.00D+00 WtEn= 0.00D+00
 Large coefficients: NSaved=  6 BigCof=   27.39 CofMax=   10.00 Det=-1.43D-13
 Inversion failed.  Reducing to  5 matrices.
 Large coefficients: NSaved=  5 BigCof=   27.87 CofMax=   10.00 Det=-1.54D-13
 Inversion failed.  Reducing to  4 matrices.
 Large coefficients: NSaved=  4 BigCof=   27.95 CofMax=   10.00 Det=-1.56D-13
 Inversion failed.  Reducing to  3 matrices.
 Coeff-Com: -0.133D+01 0.730D+01-0.497D+01
 Coeff:     -0.133D+01 0.730D+01-0.497D+01
 Gap=     0.510 Goal=   None    Shift=    0.000
 Gap=     0.458 Goal=   None    Shift=    0.000
 RMSDP=2.61D-04 MaxDP=1.22D-02 DE=-4.18D-08 OVMax= 2.87D-02

 Cycle  47  Pass 1  IDiag  1:
 E= -435.137082561929     Delta-E=        0.000000508013 Rises=F Damp=F
 DIIS: error= 5.12D-05 at cycle  47 NSaved=   4.
 NSaved= 4 IEnMin= 1 EnMin= -435.137083245209     IErMin= 2 ErrMin= 4.05D-06
 ErrMax= 5.12D-05  0.00D+00 EMaxC= 1.00D-01 BMatC= 8.20D-08 BMatP= 2.17D-10
 IDIUse=1 WtCom= 1.00D+00 WtEn= 0.00D+00
 Coeff-Com: -0.128D+01 0.810D+01-0.585D+01 0.290D-01
 Coeff:     -0.128D+01 0.810D+01-0.585D+01 0.290D-01
 Gap=     0.510 Goal=   None    Shift=    0.000
 Gap=     0.458 Goal=   None    Shift=    0.000
 RMSDP=1.99D-05 MaxDP=9.39D-04 DE= 5.08D-07 OVMax= 2.19D-03

 Cycle  48  Pass 1  IDiag  1:
 E= -435.137082523900     Delta-E=        0.000000038029 Rises=F Damp=F
 DIIS: error= 5.69D-05 at cycle  48 NSaved=   5.
 NSaved= 5 IEnMin= 1 EnMin= -435.137083245209     IErMin= 2 ErrMin= 4.05D-06
 ErrMax= 5.69D-05  0.00D+00 EMaxC= 1.00D-01 BMatC= 1.01D-07 BMatP= 2.17D-10
 IDIUse=1 WtCom= 1.00D+00 WtEn= 0.00D+00
 Large coefficients: NSaved=  5 BigCof=   32.43 CofMax=   10.00 Det=-1.14D-13
 Inversion failed.  Reducing to  4 matrices.
 Coeff-Com: -0.171D+00 0.924D+00 0.325D+01-0.300D+01
 Coeff:     -0.171D+00 0.924D+00 0.325D+01-0.300D+01
 Gap=     0.510 Goal=   None    Shift=    0.000
 Gap=     0.458 Goal=   None    Shift=    0.000
 RMSDP=2.62D-04 MaxDP=1.23D-02 DE= 3.80D-08 OVMax= 2.89D-02

 Cycle  49  Pass 1  IDiag  1:
 E= -435.137083031089     Delta-E=       -0.000000507189 Rises=F Damp=F
 DIIS: error= 1.13D-05 at cycle  49 NSaved=   5.
 NSaved= 5 IEnMin= 1 EnMin= -435.137083245209     IErMin= 2 ErrMin= 4.10D-06
 ErrMax= 1.13D-05  0.00D+00 EMaxC= 1.00D-01 BMatC= 4.53D-09 BMatP= 2.17D-10
 IDIUse=1 WtCom= 1.00D+00 WtEn= 0.00D+00
 Large coefficients: NSaved=  5 BigCof=   24.56 CofMax=   10.00 Det=-4.46D-14
 Inversion failed.  Reducing to  4 matrices.
 Coeff-Com: -0.631D+00 0.132D+01-0.212D+00 0.525D+00
 Coeff:     -0.631D+00 0.132D+01-0.212D+00 0.525D+00
 Gap=     0.510 Goal=   None    Shift=    0.000
 Gap=     0.458 Goal=   None    Shift=    0.000
 RMSDP=1.59D-05 MaxDP=7.40D-04 DE=-5.07D-07 OVMax= 1.75D-03

 Cycle  50  Pass 1  IDiag  1:
 E= -435.137083062901     Delta-E=       -0.000000031813 Rises=F Damp=F
 DIIS: error= 1.39D-05 at cycle  50 NSaved=   5.
 NSaved= 5 IEnMin= 1 EnMin= -435.137083245209     IErMin= 2 ErrMin= 4.10D-06
 ErrMax= 1.39D-05  0.00D+00 EMaxC= 1.00D-01 BMatC= 6.68D-09 BMatP= 2.17D-10
 IDIUse=1 WtCom= 1.00D+00 WtEn= 0.00D+00
 Large coefficients: NSaved=  5 BigCof=   18.47 CofMax=   10.00 Det=-1.36D-13
 Inversion failed.  Reducing to  4 matrices.
 Large coefficients: NSaved=  4 BigCof=   19.22 CofMax=   10.00 Det=-1.58D-13
 Inversion failed.  Reducing to  3 matrices.
 Large coefficients: NSaved=  3 BigCof=   13.61 CofMax=   10.00 Det=-3.64D-13
 Inversion failed.  Reducing to  2 matrices.
 Coeff-Com:  0.551D+01-0.451D+01
 Coeff:      0.551D+01-0.451D+01
 Gap=     0.510 Goal=   None    Shift=    0.000
 Gap=     0.458 Goal=   None    Shift=    0.000
 RMSDP=8.77D-05 MaxDP=4.08D-03 DE=-3.18D-08 OVMax= 9.64D-03

 Cycle  51  Pass 1  IDiag  1:
 E= -435.137082890403     Delta-E=        0.000000172498 Rises=F Damp=F
 DIIS: error= 3.87D-06 at cycle  51 NSaved=   3.
 NSaved= 3 IEnMin= 2 EnMin= -435.137083062901     IErMin= 3 ErrMin= 3.87D-06
 ErrMax= 3.87D-06  0.00D+00 EMaxC= 1.00D-01 BMatC= 7.54D-10 BMatP= 4.53D-09
 IDIUse=1 WtCom= 1.00D+00 WtEn= 0.00D+00
 Coeff-Com:  0.265D+01-0.239D+01 0.743D+00
 Coeff:      0.265D+01-0.239D+01 0.743D+00
 Gap=     0.510 Goal=   None    Shift=    0.000
 Gap=     0.458 Goal=   None    Shift=    0.000
 RMSDP=1.95D-05 MaxDP=9.12D-04 DE= 1.72D-07 OVMax= 2.15D-03

 Cycle  52  Pass 1  IDiag  1:
 E= -435.137082853080     Delta-E=        0.000000037322 Rises=F Damp=F
 DIIS: error= 3.82D-06 at cycle  52 NSaved=   4.
 NSaved= 4 IEnMin= 2 EnMin= -435.137083062901     IErMin= 4 ErrMin= 3.82D-06
 ErrMax= 3.82D-06  0.00D+00 EMaxC= 1.00D-01 BMatC= 5.53D-10 BMatP= 7.54D-10
 IDIUse=1 WtCom= 1.00D+00 WtEn= 0.00D+00
 Coeff-Com: -0.146D+01 0.865D+00-0.102D+01 0.262D+01
 Coeff:     -0.146D+01 0.865D+00-0.102D+01 0.262D+01
 Gap=     0.510 Goal=   None    Shift=    0.000
 Gap=     0.458 Goal=   None    Shift=    0.000
 RMSDP=6.08D-05 MaxDP=2.84D-03 DE= 3.73D-08 OVMax= 6.68D-03

 Cycle  53  Pass 1  IDiag  1:
 E= -435.137082740000     Delta-E=        0.000000113081 Rises=F Damp=F
 DIIS: error= 3.73D-06 at cycle  53 NSaved=   5.
 NSaved= 5 IEnMin= 2 EnMin= -435.137083062901     IErMin= 5 ErrMin= 3.73D-06
 ErrMax= 3.73D-06  0.00D+00 EMaxC= 1.00D-01 BMatC= 7.51D-10 BMatP= 5.53D-10
 IDIUse=1 WtCom= 1.00D+00 WtEn= 0.00D+00
 Large coefficients: NSaved=  5 BigCof=   46.06 CofMax=   10.00 Det=-2.52D-14
 Inversion failed.  Reducing to  4 matrices.
 Large coefficients: NSaved=  4 BigCof=   23.00 CofMax=   10.00 Det=-6.93D-14
 Inversion failed.  Reducing to  3 matrices.
 Coeff-Com: -0.612D+00-0.216D+01 0.377D+01
 Coeff:     -0.612D+00-0.216D+01 0.377D+01
 Gap=     0.510 Goal=   None    Shift=    0.000
 Gap=     0.458 Goal=   None    Shift=    0.000
 RMSDP=2.33D-04 MaxDP=1.10D-02 DE= 1.13D-07 OVMax= 2.57D-02

 Cycle  54  Pass 1  IDiag  1:
 E= -435.137082329136     Delta-E=        0.000000410863 Rises=F Damp=F
 DIIS: error= 5.46D-05 at cycle  54 NSaved=   4.
 NSaved= 4 IEnMin= 1 EnMin= -435.137083062901     IErMin= 3 ErrMin= 3.73D-06
 ErrMax= 5.46D-05  0.00D+00 EMaxC= 1.00D-01 BMatC= 9.43D-08 BMatP= 5.53D-10
 IDIUse=1 WtCom= 1.00D+00 WtEn= 0.00D+00
 Coeff-Com:  0.329D+00-0.811D+01 0.907D+01-0.287D+00
 Coeff:      0.329D+00-0.811D+01 0.907D+01-0.287D+00
 Gap=     0.510 Goal=   None    Shift=    0.000
 Gap=     0.458 Goal=   None    Shift=    0.000
 RMSDP=1.36D-04 MaxDP=6.46D-03 DE= 4.11D-07 OVMax= 1.49D-02

 Cycle  55  Pass 1  IDiag  1:
 E= -435.137082055890     Delta-E=        0.000000273246 Rises=F Damp=F
 DIIS: error= 1.19D-04 at cycle  55 NSaved=   5.
 NSaved= 5 IEnMin= 1 EnMin= -435.137083062901     IErMin= 3 ErrMin= 3.73D-06
 ErrMax= 1.19D-04  0.00D+00 EMaxC= 1.00D-01 BMatC= 4.43D-07 BMatP= 5.53D-10
 IDIUse=1 WtCom= 1.00D+00 WtEn= 0.00D+00
 Coeff-Com: -0.207D+01-0.489D+00 0.198D+01 0.258D+01-0.998D+00
 Coeff:     -0.207D+01-0.489D+00 0.198D+01 0.258D+01-0.998D+00
 Gap=     0.509 Goal=   None    Shift=    0.000
 Gap=     0.458 Goal=   None    Shift=    0.000
 RMSDP=2.38D-04 MaxDP=1.14D-02 DE= 2.73D-07 OVMax= 2.62D-02

 Cycle  56  Pass 1  IDiag  1:
 E= -435.137081259959     Delta-E=        0.000000795931 Rises=F Damp=F
 DIIS: error= 2.91D-04 at cycle  56 NSaved=   6.
 NSaved= 6 IEnMin= 1 EnMin= -435.137083062901     IErMin= 3 ErrMin= 3.73D-06
 ErrMax= 2.91D-04  0.00D+00 EMaxC= 1.00D-01 BMatC= 2.69D-06 BMatP= 5.53D-10
 IDIUse=1 WtCom= 1.00D+00 WtEn= 0.00D+00
 Large coefficients: NSaved=  6 BigCof=   37.74 CofMax=   10.00 Det=-1.63D-14
 Inversion failed.  Reducing to  5 matrices.
 Coeff-Com: -0.195D+01-0.363D+01 0.614D+01 0.667D+00-0.223D+00
 Coeff:     -0.195D+01-0.363D+01 0.614D+01 0.667D+00-0.223D+00
 Gap=     0.509 Goal=   None    Shift=    0.000
 Gap=     0.458 Goal=   None    Shift=    0.000
 RMSDP=4.68D-05 MaxDP=2.26D-03 DE= 7.96D-07 OVMax= 5.15D-03

 Cycle  57  Pass 1  IDiag  1:
 E= -435.137081015168     Delta-E=        0.000000244790 Rises=F Damp=F
 DIIS: error= 3.34D-04 at cycle  57 NSaved=   6.
 NSaved= 6 IEnMin= 1 EnMin= -435.137083062901     IErMin= 3 ErrMin= 3.73D-06
 ErrMax= 3.34D-04  0.00D+00 EMaxC= 1.00D-01 BMatC= 3.56D-06 BMatP= 5.53D-10
 IDIUse=1 WtCom= 1.00D+00 WtEn= 0.00D+00
 Large coefficients: NSaved=  6 BigCof=   16.83 CofMax=   10.00 Det=-1.84D-13
 Inversion failed.  Reducing to  5 matrices.
 Coeff-Com: -0.188D+01-0.276D+01 0.543D+01 0.133D+01-0.112D+01
 Coeff:     -0.188D+01-0.276D+01 0.543D+01 0.133D+01-0.112D+01
 Gap=     0.509 Goal=   None    Shift=    0.000
 Gap=     0.458 Goal=   None    Shift=    0.000
 RMSDP=9.82D-05 MaxDP=4.72D-03 DE= 2.45D-07 OVMax= 1.08D-02

 Cycle  58  Pass 1  IDiag  1:
 E= -435.137081487111     Delta-E=       -0.000000471943 Rises=F Damp=F
 DIIS: error= 2.47D-04 at cycle  58 NSaved=   6.
 NSaved= 6 IEnMin= 1 EnMin= -435.137083062901     IErMin= 3 ErrMin= 3.73D-06
 ErrMax= 2.47D-04  0.00D+00 EMaxC= 1.00D-01 BMatC= 1.94D-06 BMatP= 5.53D-10
 IDIUse=1 WtCom= 1.00D+00 WtEn= 0.00D+00
 Coeff-Com: -0.136D+01-0.474D+01 0.685D+01-0.575D+01 0.225D+01 0.376D+01
 Coeff:     -0.136D+01-0.474D+01 0.685D+01-0.575D+01 0.225D+01 0.376D+01
 Gap=     0.509 Goal=   None    Shift=    0.000
 Gap=     0.458 Goal=   None    Shift=    0.000
 RMSDP=2.48D-05 MaxDP=1.19D-03 DE=-4.72D-07 OVMax= 2.73D-03

 Cycle  59  Pass 1  IDiag  1:
 E= -435.137081382486     Delta-E=        0.000000104625 Rises=F Damp=F
 DIIS: error= 2.68D-04 at cycle  59 NSaved=   7.
 NSaved= 7 IEnMin= 1 EnMin= -435.137083062901     IErMin= 3 ErrMin= 3.73D-06
 ErrMax= 2.68D-04  0.00D+00 EMaxC= 1.00D-01 BMatC= 2.28D-06 BMatP= 5.53D-10
 IDIUse=1 WtCom= 1.00D+00 WtEn= 0.00D+00
 Coeff-Com: -0.114D+01-0.573D+01 0.762D+01-0.945D+01 0.341D+01 0.336D+01
 Coeff-Com:  0.293D+01
 Coeff:     -0.114D+01-0.573D+01 0.762D+01-0.945D+01 0.341D+01 0.336D+01
 Coeff:      0.293D+01
 Gap=     0.509 Goal=   None    Shift=    0.000
 Gap=     0.458 Goal=   None    Shift=    0.000
 RMSDP=1.34D-05 MaxDP=6.44D-04 DE= 1.05D-07 OVMax= 1.47D-03

 Cycle  60  Pass 1  IDiag  1:
 E= -435.137081322746     Delta-E=        0.000000059740 Rises=F Damp=F
 DIIS: error= 2.79D-04 at cycle  60 NSaved=   8.
 NSaved= 8 IEnMin= 1 EnMin= -435.137083062901     IErMin= 3 ErrMin= 3.73D-06
 ErrMax= 2.79D-04  0.00D+00 EMaxC= 1.00D-01 BMatC= 2.48D-06 BMatP= 5.53D-10
 IDIUse=1 WtCom= 1.00D+00 WtEn= 0.00D+00
 Large coefficients: NSaved=  8 BigCof=   32.02 CofMax=   10.00 Det=-5.57D-15
 Inversion failed.  Reducing to  7 matrices.
 Coeff-Com: -0.175D+01-0.349D+01 0.601D+01-0.176D+01 0.141D+01-0.109D+01
 Coeff-Com:  0.167D+01
 Coeff:     -0.175D+01-0.349D+01 0.601D+01-0.176D+01 0.141D+01-0.109D+01
 Coeff:      0.167D+01
 Gap=     0.509 Goal=   None    Shift=    0.000
 Gap=     0.458 Goal=   None    Shift=    0.000
 RMSDP=1.59D-05 MaxDP=7.67D-04 DE= 5.97D-08 OVMax= 1.75D-03

 Cycle  61  Pass 1  IDiag  1:
 E= -435.137081394630     Delta-E=       -0.000000071884 Rises=F Damp=F
 DIIS: error= 2.66D-04 at cycle  61 NSaved=   8.
 NSaved= 8 IEnMin= 1 EnMin= -435.137083062901     IErMin= 3 ErrMin= 3.73D-06
 ErrMax= 2.66D-04  0.00D+00 EMaxC= 1.00D-01 BMatC= 2.24D-06 BMatP= 5.53D-10
 IDIUse=1 WtCom= 1.00D+00 WtEn= 0.00D+00
 Large coefficients: NSaved=  8 BigCof=   68.41 CofMax=   10.00 Det=-6.89D-15
 Inversion failed.  Reducing to  7 matrices.
 Large coefficients: NSaved=  7 BigCof=   56.29 CofMax=   10.00 Det=-7.64D-15
 Inversion failed.  Reducing to  6 matrices.
 Coeff-Com: -0.132D+01-0.485D+01 0.698D+01 0.514D+01 0.369D+01-0.865D+01
 Coeff:     -0.132D+01-0.485D+01 0.698D+01 0.514D+01 0.369D+01-0.865D+01
 Gap=     0.509 Goal=   None    Shift=    0.000
 Gap=     0.458 Goal=   None    Shift=    0.000
 RMSDP=1.58D-05 MaxDP=7.59D-04 DE=-7.19D-08 OVMax= 1.74D-03

 Cycle  62  Pass 1  IDiag  1:
 E= -435.137081453772     Delta-E=       -0.000000059141 Rises=F Damp=F
 DIIS: error= 2.55D-04 at cycle  62 NSaved=   7.
 NSaved= 7 IEnMin= 1 EnMin= -435.137083062901     IErMin= 3 ErrMin= 3.73D-06
 ErrMax= 2.55D-04  0.00D+00 EMaxC= 1.00D-01 BMatC= 2.05D-06 BMatP= 5.53D-10
 IDIUse=1 WtCom= 1.00D+00 WtEn= 0.00D+00
 Large coefficients: NSaved=  7 BigCof=   20.45 CofMax=   10.00 Det=-5.17D-15
 Inversion failed.  Reducing to  6 matrices.
 Coeff-Com: -0.145D+01-0.424D+01 0.649D+01 0.206D+01-0.232D+01 0.441D+00
 Coeff:     -0.145D+01-0.424D+01 0.649D+01 0.206D+01-0.232D+01 0.441D+00
 Gap=     0.509 Goal=   None    Shift=    0.000
 Gap=     0.458 Goal=   None    Shift=    0.000
 RMSDP=8.88D-06 MaxDP=4.27D-04 DE=-5.91D-08 OVMax= 9.76D-04

 Cycle  63  Pass 1  IDiag  1:
 E= -435.137081491435     Delta-E=       -0.000000037663 Rises=F Damp=F
 DIIS: error= 2.47D-04 at cycle  63 NSaved=   7.
 NSaved= 7 IEnMin= 1 EnMin= -435.137083062901     IErMin= 3 ErrMin= 3.73D-06
 ErrMax= 2.47D-04  0.00D+00 EMaxC= 1.00D-01 BMatC= 1.93D-06 BMatP= 5.53D-10
 IDIUse=1 WtCom= 1.00D+00 WtEn= 0.00D+00
 Coeff-Com: -0.151D+01-0.414D+01 0.644D+01-0.772D+00-0.107D+01-0.266D+01
 Coeff-Com:  0.471D+01
 Coeff:     -0.151D+01-0.414D+01 0.644D+01-0.772D+00-0.107D+01-0.266D+01
 Coeff:      0.471D+01
 Gap=     0.509 Goal=   None    Shift=    0.000
 Gap=     0.458 Goal=   None    Shift=    0.000
 RMSDP=5.67D-06 MaxDP=2.72D-04 DE=-3.77D-08 OVMax= 6.24D-04

 Cycle  64  Pass 1  IDiag  1:
 E= -435.137081464801     Delta-E=        0.000000026634 Rises=F Damp=F
 DIIS: error= 2.53D-04 at cycle  64 NSaved=   8.
 NSaved= 8 IEnMin= 1 EnMin= -435.137083062901     IErMin= 3 ErrMin= 3.73D-06
 ErrMax= 2.53D-04  0.00D+00 EMaxC= 1.00D-01 BMatC= 2.02D-06 BMatP= 5.53D-10
 IDIUse=1 WtCom= 1.00D+00 WtEn= 0.00D+00
 Large coefficients: NSaved=  8 BigCof=   46.56 CofMax=   10.00 Det=-6.68D-15
 Inversion failed.  Reducing to  7 matrices.
 Large coefficients: NSaved=  7 BigCof=   24.51 CofMax=   10.00 Det=-2.23D-14
 Inversion failed.  Reducing to  6 matrices.
 Large coefficients: NSaved=  6 BigCof=   10.39 CofMax=   10.00 Det=-1.36D-13
 Inversion failed.  Reducing to  5 matrices.
 Large coefficients: NSaved=  5 BigCof=   10.37 CofMax=   10.00 Det=-1.36D-13
 Inversion failed.  Reducing to  4 matrices.
 Large coefficients: NSaved=  4 BigCof=   16.38 CofMax=   10.00 Det=-1.84D-13
 Inversion failed.  Reducing to  3 matrices.
 Coeff-Com:  0.119D+01-0.541D+01 0.522D+01
 Coeff:      0.119D+01-0.541D+01 0.522D+01
 Gap=     0.511 Goal=   None    Shift=    0.000
 Gap=     0.458 Goal=   None    Shift=    0.000
 RMSDP=8.32D-04 MaxDP=3.93D-02 DE= 2.66D-08 OVMax= 9.15D-02

 Cycle  65  Pass 1  IDiag  1:
 E= -435.137083272549     Delta-E=       -0.000001807749 Rises=F Damp=F
 DIIS: error= 4.57D-05 at cycle  65 NSaved=   4.
 NSaved= 4 IEnMin= 4 EnMin= -435.137083272549     IErMin= 1 ErrMin= 1.39D-05
 ErrMax= 4.57D-05  0.00D+00 EMaxC= 1.00D-01 BMatC= 6.47D-08 BMatP= 6.68D-09
 IDIUse=1 WtCom= 1.00D+00 WtEn= 0.00D+00
 Large coefficients: NSaved=  4 BigCof=   31.32 CofMax=   10.00 Det=-7.24D-14
 Inversion failed.  Reducing to  3 matrices.
 Coeff-Com:  0.132D+01-0.219D-01-0.297D+00
 Coeff:      0.132D+01-0.219D-01-0.297D+00
 Gap=     0.510 Goal=   None    Shift=    0.000
 Gap=     0.458 Goal=   None    Shift=    0.000
 RMSDP=1.21D-04 MaxDP=5.62D-03 DE=-1.81D-06 OVMax= 1.33D-02

 Cycle  66  Pass 1  IDiag  1:
 E= -435.137083032244     Delta-E=        0.000000240305 Rises=F Damp=F
 DIIS: error= 9.81D-06 at cycle  66 NSaved=   4.
 NSaved= 4 IEnMin= 3 EnMin= -435.137083272549     IErMin= 4 ErrMin= 9.81D-06
 ErrMax= 9.81D-06  0.00D+00 EMaxC= 1.00D-01 BMatC= 3.57D-09 BMatP= 6.68D-09
 IDIUse=1 WtCom= 1.00D+00 WtEn= 0.00D+00
 Coeff-Com: -0.152D+00-0.193D-01-0.147D+00 0.132D+01
 Coeff:     -0.152D+00-0.193D-01-0.147D+00 0.132D+01
 Gap=     0.510 Goal=   None    Shift=    0.000
 Gap=     0.458 Goal=   None    Shift=    0.000
 RMSDP=6.40D-06 MaxDP=2.98D-04 DE= 2.40D-07 OVMax= 7.04D-04

 Cycle  67  Pass 1  IDiag  1:
 E= -435.137083019644     Delta-E=        0.000000012600 Rises=F Damp=F
 DIIS: error= 7.58D-06 at cycle  67 NSaved=   5.
 NSaved= 5 IEnMin= 3 EnMin= -435.137083272549     IErMin= 5 ErrMin= 7.58D-06
 ErrMax= 7.58D-06  0.00D+00 EMaxC= 1.00D-01 BMatC= 2.30D-09 BMatP= 3.57D-09
 IDIUse=1 WtCom= 1.00D+00 WtEn= 0.00D+00
 Coeff-Com: -0.138D+01-0.149D-01 0.763D-01 0.488D+00 0.183D+01
 Coeff:     -0.138D+01-0.149D-01 0.763D-01 0.488D+00 0.183D+01
 Gap=     0.510 Goal=   None    Shift=    0.000
 Gap=     0.458 Goal=   None    Shift=    0.000
 RMSDP=6.65D-06 MaxDP=3.10D-04 DE= 1.26D-08 OVMax= 7.31D-04

 Cycle  68  Pass 1  IDiag  1:
 E= -435.137083006642     Delta-E=        0.000000013002 Rises=F Damp=F
 DIIS: error= 4.04D-06 at cycle  68 NSaved=   6.
 NSaved= 6 IEnMin= 3 EnMin= -435.137083272549     IErMin= 6 ErrMin= 4.04D-06
 ErrMax= 4.04D-06  0.00D+00 EMaxC= 1.00D-01 BMatC= 8.65D-10 BMatP= 2.30D-09
 IDIUse=1 WtCom= 1.00D+00 WtEn= 0.00D+00
 Large coefficients: NSaved=  6 BigCof=   29.47 CofMax=   10.00 Det=-1.32D-14
 Inversion failed.  Reducing to  5 matrices.
 Large coefficients: NSaved=  5 BigCof=   20.57 CofMax=   10.00 Det=-1.43D-14
 Inversion failed.  Reducing to  4 matrices.
 Coeff-Com: -0.518D+01 0.396D+00 0.832D+01-0.254D+01
 Coeff:     -0.518D+01 0.396D+00 0.832D+01-0.254D+01
 Gap=     0.510 Goal=   None    Shift=    0.000
 Gap=     0.458 Goal=   None    Shift=    0.000
 RMSDP=3.89D-05 MaxDP=1.81D-03 DE= 1.30D-08 OVMax= 4.27D-03

 Cycle  69  Pass 1  IDiag  1:
 E= -435.137082929950     Delta-E=        0.000000076692 Rises=F Damp=F
 DIIS: error= 3.93D-06 at cycle  69 NSaved=   5.
 NSaved= 5 IEnMin= 2 EnMin= -435.137083272549     IErMin= 5 ErrMin= 3.93D-06
 ErrMax= 3.93D-06  0.00D+00 EMaxC= 1.00D-01 BMatC= 2.24D-10 BMatP= 8.65D-10
 IDIUse=1 WtCom= 1.00D+00 WtEn= 0.00D+00
 Large coefficients: NSaved=  5 BigCof=   64.94 CofMax=   10.00 Det=-1.47D-14
 Inversion failed.  Reducing to  4 matrices.
 Coeff-Com:  0.350D+01 0.103D+00-0.979D+01 0.719D+01
 Coeff:      0.350D+01 0.103D+00-0.979D+01 0.719D+01
 Gap=     0.510 Goal=   None    Shift=    0.000
 Gap=     0.458 Goal=   None    Shift=    0.000
 RMSDP=1.27D-04 MaxDP=5.94D-03 DE= 7.67D-08 OVMax= 1.40D-02

 Cycle  70  Pass 1  IDiag  1:
 E= -435.137082692040     Delta-E=        0.000000237910 Rises=F Damp=F
 DIIS: error= 7.63D-06 at cycle  70 NSaved=   5.
 NSaved= 5 IEnMin= 2 EnMin= -435.137083272549     IErMin= 4 ErrMin= 3.93D-06
 ErrMax= 7.63D-06  0.00D+00 EMaxC= 1.00D-01 BMatC= 2.31D-09 BMatP= 2.24D-10
 IDIUse=1 WtCom= 1.00D+00 WtEn= 0.00D+00
 Large coefficients: NSaved=  5 BigCof=   17.15 CofMax=   10.00 Det=-9.88D-14
 Inversion failed.  Reducing to  4 matrices.
 Coeff-Com: -0.181D+01 0.377D+00 0.117D+01 0.126D+01
 Coeff:     -0.181D+01 0.377D+00 0.117D+01 0.126D+01
 Gap=     0.510 Goal=   None    Shift=    0.000
 Gap=     0.458 Goal=   None    Shift=    0.000
 RMSDP=8.93D-05 MaxDP=4.20D-03 DE= 2.38D-07 OVMax= 9.82D-03

 Cycle  71  Pass 1  IDiag  1:
 E= -435.137082536402     Delta-E=        0.000000155638 Rises=F Damp=F
 DIIS: error= 1.55D-05 at cycle  71 NSaved=   5.
 NSaved= 5 IEnMin= 2 EnMin= -435.137083272549     IErMin= 3 ErrMin= 3.93D-06
 ErrMax= 1.55D-05  0.00D+00 EMaxC= 1.00D-01 BMatC= 8.22D-09 BMatP= 2.24D-10
 IDIUse=1 WtCom= 1.00D+00 WtEn= 0.00D+00
 Coeff-Com: -0.205D+01 0.490D+00 0.111D+01 0.188D+01-0.425D+00
 Coeff:     -0.205D+01 0.490D+00 0.111D+01 0.188D+01-0.425D+00
 Gap=     0.510 Goal=   None    Shift=    0.000
 Gap=     0.458 Goal=   None    Shift=    0.000
 RMSDP=1.69D-05 MaxDP=7.99D-04 DE= 1.56D-07 OVMax= 1.86D-03

 Cycle  72  Pass 1  IDiag  1:
 E= -435.137082564760     Delta-E=       -0.000000028358 Rises=F Damp=F
 DIIS: error= 1.59D-05 at cycle  72 NSaved=   6.
 NSaved= 6 IEnMin= 2 EnMin= -435.137083272549     IErMin= 3 ErrMin= 3.93D-06
 ErrMax= 1.59D-05  0.00D+00 EMaxC= 1.00D-01 BMatC= 8.64D-09 BMatP= 2.24D-10
 IDIUse=1 WtCom= 1.00D+00 WtEn= 0.00D+00
 Large coefficients: NSaved=  6 BigCof=   32.33 CofMax=   10.00 Det=-9.91D-14
 Inversion failed.  Reducing to  5 matrices.
 Coeff-Com: -0.717D+00 0.227D+00 0.136D+01 0.788D+00-0.659D+00
 Coeff:     -0.717D+00 0.227D+00 0.136D+01 0.788D+00-0.659D+00
 Gap=     0.510 Goal=   None    Shift=    0.000
 Gap=     0.458 Goal=   None    Shift=    0.000
 RMSDP=1.51D-04 MaxDP=7.10D-03 DE=-2.84D-08 OVMax= 1.66D-02

 Cycle  73  Pass 1  IDiag  1:
 E= -435.137082837310     Delta-E=       -0.000000272550 Rises=F Damp=F
 DIIS: error= 9.20D-06 at cycle  73 NSaved=   6.
 NSaved= 6 IEnMin= 2 EnMin= -435.137083272549     IErMin= 3 ErrMin= 3.93D-06
 ErrMax= 9.20D-06  0.00D+00 EMaxC= 1.00D-01 BMatC= 2.25D-09 BMatP= 2.24D-10
 IDIUse=1 WtCom= 1.00D+00 WtEn= 0.00D+00
 Large coefficients: NSaved=  6 BigCof=   17.70 CofMax=   10.00 Det=-3.14D-13
 Inversion failed.  Reducing to  5 matrices.
 Coeff-Com: -0.321D+00 0.487D+00-0.707D+01 0.155D+01 0.636D+01
 Coeff:     -0.321D+00 0.487D+00-0.707D+01 0.155D+01 0.636D+01
 Gap=     0.510 Goal=   None    Shift=    0.000
 Gap=     0.458 Goal=   None    Shift=    0.000
 RMSDP=5.01D-04 MaxDP=2.37D-02 DE=-2.73D-07 OVMax= 5.51D-02

 Cycle  74  Pass 1  IDiag  1:
 E= -435.137081902240     Delta-E=        0.000000935071 Rises=F Damp=F
 DIIS: error= 1.46D-04 at cycle  74 NSaved=   6.
 NSaved= 6 IEnMin= 2 EnMin= -435.137083272549     IErMin= 3 ErrMin= 3.93D-06
 ErrMax= 1.46D-04  0.00D+00 EMaxC= 1.00D-01 BMatC= 6.71D-07 BMatP= 2.24D-10
 IDIUse=1 WtCom= 1.00D+00 WtEn= 0.00D+00
 Coeff-Com:  0.457D+01-0.246D+01-0.884D+01 0.690D+01 0.130D+01-0.471D+00
 Coeff:      0.457D+01-0.246D+01-0.884D+01 0.690D+01 0.130D+01-0.471D+00
 Gap=     0.508 Goal=   None    Shift=    0.000
 Gap=     0.458 Goal=   None    Shift=    0.000
 RMSDP=7.18D-04 MaxDP=3.47D-02 DE= 9.35D-07 OVMax= 7.88D-02

 Cycle  75  Pass 1  IDiag  1:
 E= -435.137073223106     Delta-E=        0.000008679134 Rises=F Damp=F
 DIIS: error= 1.03D-03 at cycle  75 NSaved=   7.
 NSaved= 7 IEnMin= 2 EnMin= -435.137083272549     IErMin= 3 ErrMin= 3.93D-06
 ErrMax= 1.03D-03  0.00D+00 EMaxC= 1.00D-01 BMatC= 3.62D-05 BMatP= 2.24D-10
 IDIUse=1 WtCom= 1.00D+00 WtEn= 0.00D+00
 Coeff-Com:  0.485D+01-0.303D+01-0.733D+01 0.559D+01 0.914D+00 0.410D-01
 Coeff-Com: -0.306D-01
 Coeff:      0.485D+01-0.303D+01-0.733D+01 0.559D+01 0.914D+00 0.410D-01
 Coeff:     -0.306D-01
 Gap=     0.508 Goal=   None    Shift=    0.000
 Gap=     0.458 Goal=   None    Shift=    0.000
 RMSDP=3.96D-05 MaxDP=1.93D-03 DE= 8.68D-06 OVMax= 4.35D-03

 Cycle  76  Pass 1  IDiag  1:
 E= -435.137072449144     Delta-E=        0.000000773962 Rises=F Damp=F
 DIIS: error= 1.08D-03 at cycle  76 NSaved=   8.
 NSaved= 8 IEnMin= 2 EnMin= -435.137083272549     IErMin= 3 ErrMin= 3.93D-06
 ErrMax= 1.08D-03  0.00D+00 EMaxC= 1.00D-01 BMatC= 3.96D-05 BMatP= 2.24D-10
 IDIUse=1 WtCom= 1.00D+00 WtEn= 0.00D+00
 Coeff-Com:  0.536D+01-0.405D+01-0.305D+01 0.526D+00 0.175D+00 0.237D+01
 Coeff-Com: -0.259D+01 0.225D+01
 Coeff:      0.536D+01-0.405D+01-0.305D+01 0.526D+00 0.175D+00 0.237D+01
 Coeff:     -0.259D+01 0.225D+01
 Gap=     0.508 Goal=   None    Shift=    0.000
 Gap=     0.458 Goal=   None    Shift=    0.000
 RMSDP=7.64D-05 MaxDP=3.73D-03 DE= 7.74D-07 OVMax= 8.39D-03

 Cycle  77  Pass 1  IDiag  1:
 E= -435.137072425559     Delta-E=        0.000000023586 Rises=F Damp=F
 DIIS: error= 1.07D-03 at cycle  77 NSaved=   9.
 NSaved= 9 IEnMin= 2 EnMin= -435.137083272549     IErMin= 3 ErrMin= 3.93D-06
 ErrMax= 1.07D-03  0.00D+00 EMaxC= 1.00D-01 BMatC= 3.96D-05 BMatP= 2.24D-10
 IDIUse=1 WtCom= 1.00D+00 WtEn= 0.00D+00
 Coeff-Com:  0.523D+01-0.398D+01-0.284D+01 0.555D+00 0.353D-01 0.230D+01
 Coeff-Com: -0.191D+01 0.132D+01 0.293D+00
 Coeff:      0.523D+01-0.398D+01-0.284D+01 0.555D+00 0.353D-01 0.230D+01
 Coeff:     -0.191D+01 0.132D+01 0.293D+00
 Gap=     0.508 Goal=   None    Shift=    0.000
 Gap=     0.458 Goal=   None    Shift=    0.000
 RMSDP=2.96D-06 MaxDP=1.42D-04 DE= 2.36D-08 OVMax= 3.21D-04

 Cycle  78  Pass 1  IDiag  1:
 E= -435.137072717108     Delta-E=       -0.000000291550 Rises=F Damp=F
 DIIS: error= 1.05D-03 at cycle  78 NSaved=  10.
 NSaved=10 IEnMin= 2 EnMin= -435.137083272549     IErMin= 3 ErrMin= 3.93D-06
 ErrMax= 1.05D-03  0.00D+00 EMaxC= 1.00D-01 BMatC= 3.83D-05 BMatP= 2.24D-10
 IDIUse=1 WtCom= 1.00D+00 WtEn= 0.00D+00
 Large coefficients: NSaved= 10 BigCof=   11.77 CofMax=   10.00 Det=-4.29D-14
 Inversion failed.  Reducing to  9 matrices.
 Coeff-Com:  0.559D+01-0.444D+01-0.165D+01-0.126D+01-0.109D+00 0.338D+01
 Coeff-Com: -0.177D+01 0.880D+01-0.754D+01
 Coeff:      0.559D+01-0.444D+01-0.165D+01-0.126D+01-0.109D+00 0.338D+01
 Coeff:     -0.177D+01 0.880D+01-0.754D+01
 Gap=     0.508 Goal=   None    Shift=    0.000
 Gap=     0.458 Goal=   None    Shift=    0.000
 RMSDP=3.96D-05 MaxDP=1.93D-03 DE=-2.92D-07 OVMax= 4.34D-03

 Cycle  79  Pass 1  IDiag  1:
 E= -435.137071300385     Delta-E=        0.000001416723 Rises=F Damp=F
 DIIS: error= 1.13D-03 at cycle  79 NSaved=  10.
 NSaved=10 IEnMin= 2 EnMin= -435.137083272549     IErMin= 3 ErrMin= 3.93D-06
 ErrMax= 1.13D-03  0.00D+00 EMaxC= 1.00D-01 BMatC= 4.45D-05 BMatP= 2.24D-10
 IDIUse=1 WtCom= 1.00D+00 WtEn= 0.00D+00
 Coeff-Com:  0.572D+01-0.438D+01-0.274D+01-0.357D+00 0.188D+00 0.307D+01
 Coeff-Com: -0.945D+00 0.326D+01-0.434D+01 0.152D+01
 Coeff:      0.572D+01-0.438D+01-0.274D+01-0.357D+00 0.188D+00 0.307D+01
 Coeff:     -0.945D+00 0.326D+01-0.434D+01 0.152D+01
 Gap=     0.507 Goal=   None    Shift=    0.000
 Gap=     0.458 Goal=   None    Shift=    0.000
 RMSDP=8.25D-06 MaxDP=3.95D-04 DE= 1.42D-06 OVMax= 8.90D-04

 Cycle  80  Pass 1  IDiag  1:
 E= -435.137070241746     Delta-E=        0.000001058639 Rises=F Damp=F
 DIIS: error= 1.19D-03 at cycle  80 NSaved=  11.
 NSaved=11 IEnMin= 2 EnMin= -435.137083272549     IErMin= 3 ErrMin= 3.93D-06
 ErrMax= 1.19D-03  0.00D+00 EMaxC= 1.00D-01 BMatC= 4.91D-05 BMatP= 2.24D-10
 IDIUse=1 WtCom= 1.00D+00 WtEn= 0.00D+00
 Coeff-Com:  0.562D+01-0.415D+01-0.374D+01 0.932D+00 0.299D+00 0.243D+01
 Coeff-Com: -0.160D+00 0.111D+00-0.347D+01 0.519D+01-0.205D+01
 Coeff:      0.562D+01-0.415D+01-0.374D+01 0.932D+00 0.299D+00 0.243D+01
 Coeff:     -0.160D+00 0.111D+00-0.347D+01 0.519D+01-0.205D+01
 Gap=     0.507 Goal=   None    Shift=    0.000
 Gap=     0.458 Goal=   None    Shift=    0.000
 RMSDP=1.80D-06 MaxDP=8.77D-05 DE= 1.06D-06 OVMax= 1.97D-04

 Cycle  81  Pass 1  IDiag  1:
 E= -435.137070170627     Delta-E=        0.000000071119 Rises=F Damp=F
 DIIS: error= 1.19D-03 at cycle  81 NSaved=  12.
 NSaved=12 IEnMin= 2 EnMin= -435.137083272549     IErMin= 3 ErrMin= 3.93D-06
 ErrMax= 1.19D-03  0.00D+00 EMaxC= 1.00D-01 BMatC= 4.94D-05 BMatP= 2.24D-10
 IDIUse=1 WtCom= 1.00D+00 WtEn= 0.00D+00
 Coeff-Com:  0.567D+01-0.424D+01-0.342D+01 0.478D+00 0.283D+00 0.265D+01
 Coeff-Com: -0.437D+00 0.119D+01-0.366D+01 0.377D+01-0.254D+01 0.126D+01
 Coeff:      0.567D+01-0.424D+01-0.342D+01 0.478D+00 0.283D+00 0.265D+01
 Coeff:     -0.437D+00 0.119D+01-0.366D+01 0.377D+01-0.254D+01 0.126D+01
 Gap=     0.507 Goal=   None    Shift=    0.000
 Gap=     0.458 Goal=   None    Shift=    0.000
 RMSDP=4.54D-07 MaxDP=2.21D-05 DE= 7.11D-08 OVMax= 4.97D-05

 Cycle  82  Pass 1  IDiag  1:
 E= -435.137070137757     Delta-E=        0.000000032870 Rises=F Damp=F
 DIIS: error= 1.19D-03 at cycle  82 NSaved=  13.
 NSaved=13 IEnMin= 2 EnMin= -435.137083272549     IErMin= 3 ErrMin= 3.93D-06
 ErrMax= 1.19D-03  0.00D+00 EMaxC= 1.00D-01 BMatC= 4.96D-05 BMatP= 2.24D-10
 IDIUse=1 WtCom= 1.00D+00 WtEn= 0.00D+00
 Large coefficients: NSaved= 13 BigCof=   53.00 CofMax=   10.00 Det=-2.32D-16
 Inversion failed.  Reducing to 12 matrices.
 Large coefficients: NSaved= 12 BigCof=   31.80 CofMax=   10.00 Det=-7.45D-16
 Inversion failed.  Reducing to 11 matrices.
 Large coefficients: NSaved= 11 BigCof=   23.10 CofMax=   10.00 Det=-9.66D-16
 Inversion failed.  Reducing to 10 matrices.
 Large coefficients: NSaved= 10 BigCof=   28.26 CofMax=   10.00 Det=-1.03D-15
 Inversion failed.  Reducing to  9 matrices.
 Large coefficients: NSaved=  9 BigCof=   41.61 CofMax=   10.00 Det=-1.19D-15
 Inversion failed.  Reducing to  8 matrices.
 Large coefficients: NSaved=  8 BigCof=   24.78 CofMax=   10.00 Det=-1.21D-15
 Inversion failed.  Reducing to  7 matrices.
 Large coefficients: NSaved=  7 BigCof=   14.86 CofMax=   10.00 Det=-3.59D-15
 Inversion failed.  Reducing to  6 matrices.
 Large coefficients: NSaved=  6 BigCof=   67.79 CofMax=   10.00 Det=-4.60D-15
 Inversion failed.  Reducing to  5 matrices.
 Large coefficients: NSaved=  5 BigCof=   72.31 CofMax=   10.00 Det=-4.67D-15
 Inversion failed.  Reducing to  4 matrices.
 Large coefficients: NSaved=  4 BigCof=   69.26 CofMax=   10.00 Det=-4.69D-15
 Inversion failed.  Reducing to  3 matrices.
 Large coefficients: NSaved=  3 BigCof=  149.81 CofMax=   10.00 Det=-2.32D-13
 Inversion failed.  Reducing to  2 matrices.
 Large coefficients: NSaved=  2 BigCof=  688.05 CofMax=   10.00 Det=-1.04D-10
 Coeff-Com:  0.688D+03-0.687D+03
 Coeff:      0.688D+03-0.687D+03
 Gap=     0.510 Goal=   None    Shift=    0.000
 Gap=     0.458 Goal=   None    Shift=    0.000
 RMSDP=3.12D-04 MaxDP=1.51D-02 DE= 3.29D-08 OVMax= 3.42D-02

 Cycle  83  Pass 1  IDiag  1:
 E= -435.137081537727     Delta-E=       -0.000011399969 Rises=F Damp=F
 DIIS: error= 7.68D-05 at cycle  83 NSaved=   3.
 NSaved= 3 IEnMin= 3 EnMin= -435.137081537727     IErMin= 3 ErrMin= 7.68D-05
 ErrMax= 7.68D-05  0.00D+00 EMaxC= 1.00D-01 BMatC= 1.48D-07 BMatP= 4.94D-05
 IDIUse=1 WtCom= 1.00D+00 WtEn= 0.00D+00
 Large coefficients: NSaved=  3 BigCof=  193.86 CofMax=   10.00 Det=-2.05D-13
 Inversion failed.  Reducing to  2 matrices.
 Coeff-Com: -0.555D-01 0.106D+01
 Coeff:     -0.555D-01 0.106D+01
 Gap=     0.510 Goal=   None    Shift=    0.000
 Gap=     0.458 Goal=   None    Shift=    0.000
 RMSDP=1.74D-05 MaxDP=8.30D-04 DE=-1.14D-05 OVMax= 1.91D-03

 Cycle  84  Pass 1  IDiag  1:
 E= -435.137081580663     Delta-E=       -0.000000042936 Rises=F Damp=F
 DIIS: error= 8.90D-06 at cycle  84 NSaved=   3.
 NSaved= 3 IEnMin= 3 EnMin= -435.137081580663     IErMin= 3 ErrMin= 8.90D-06
 ErrMax= 8.90D-06  0.00D+00 EMaxC= 1.00D-01 BMatC= 1.47D-09 BMatP= 1.48D-07
 IDIUse=1 WtCom= 1.00D+00 WtEn= 0.00D+00
 Coeff-Com:  0.123D-01-0.322D+00 0.131D+01
 Coeff:      0.123D-01-0.322D+00 0.131D+01
 Gap=     0.510 Goal=   None    Shift=    0.000
 Gap=     0.458 Goal=   None    Shift=    0.000
 RMSDP=1.57D-06 MaxDP=7.13D-05 DE=-4.29D-08 OVMax= 1.73D-04

 Cycle  85  Pass 1  IDiag  1:
 E= -435.137081581827     Delta-E=       -0.000000001164 Rises=F Damp=F
 DIIS: error= 1.11D-06 at cycle  85 NSaved=   4.
 NSaved= 4 IEnMin= 4 EnMin= -435.137081581827     IErMin= 4 ErrMin= 1.11D-06
 ErrMax= 1.11D-06  0.00D+00 EMaxC= 1.00D-01 BMatC= 7.82D-11 BMatP= 1.47D-09
 IDIUse=1 WtCom= 1.00D+00 WtEn= 0.00D+00
 Coeff-Com:  0.226D-02-0.392D-01 0.130D+00 0.907D+00
 Coeff:      0.226D-02-0.392D-01 0.130D+00 0.907D+00
 Gap=     0.510 Goal=   None    Shift=    0.000
 Gap=     0.458 Goal=   None    Shift=    0.000
 RMSDP=1.87D-07 MaxDP=9.11D-06 DE=-1.16D-09 OVMax= 1.99D-05

 Cycle  86  Pass 1  IDiag  1:
 E= -435.137081581756     Delta-E=        0.000000000072 Rises=F Damp=F
 DIIS: error= 9.71D-07 at cycle  86 NSaved=   5.
 NSaved= 5 IEnMin= 4 EnMin= -435.137081581827     IErMin= 5 ErrMin= 9.71D-07
 ErrMax= 9.71D-07  0.00D+00 EMaxC= 1.00D-01 BMatC= 1.99D-11 BMatP= 7.82D-11
 IDIUse=1 WtCom= 1.00D+00 WtEn= 0.00D+00
 Coeff-Com: -0.271D-02 0.728D-01-0.265D+00 0.133D+00 0.106D+01
 Coeff:     -0.271D-02 0.728D-01-0.265D+00 0.133D+00 0.106D+01
 Gap=     0.510 Goal=   None    Shift=    0.000
 Gap=     0.458 Goal=   None    Shift=    0.000
 RMSDP=5.84D-08 MaxDP=2.74D-06 DE= 7.17D-11 OVMax= 5.93D-06

 Cycle  87  Pass 1  IDiag  1:
 E= -435.137081581732     Delta-E=        0.000000000024 Rises=F Damp=F
 DIIS: error= 9.55D-07 at cycle  87 NSaved=   6.
 NSaved= 6 IEnMin= 4 EnMin= -435.137081581827     IErMin= 6 ErrMin= 9.55D-07
 ErrMax= 9.55D-07  0.00D+00 EMaxC= 1.00D-01 BMatC= 1.19D-11 BMatP= 1.99D-11
 IDIUse=1 WtCom= 1.00D+00 WtEn= 0.00D+00
 Coeff-Com: -0.464D-03 0.177D-02 0.227D-01-0.738D-01-0.156D+00 0.121D+01
 Coeff:     -0.464D-03 0.177D-02 0.227D-01-0.738D-01-0.156D+00 0.121D+01
 Gap=     0.510 Goal=   None    Shift=    0.000
 Gap=     0.458 Goal=   None    Shift=    0.000
 RMSDP=8.92D-08 MaxDP=4.32D-06 DE= 2.35D-11 OVMax= 9.77D-06

 Cycle  88  Pass 1  IDiag  1:
 E= -435.137081581777     Delta-E=       -0.000000000045 Rises=F Damp=F
 DIIS: error= 9.57D-07 at cycle  88 NSaved=   7.
 NSaved= 7 IEnMin= 4 EnMin= -435.137081581827     IErMin= 6 ErrMin= 9.55D-07
 ErrMax= 9.57D-07  0.00D+00 EMaxC= 1.00D-01 BMatC= 9.97D-12 BMatP= 1.19D-11
 IDIUse=1 WtCom= 1.00D+00 WtEn= 0.00D+00
 Coeff-Com: -0.214D-04-0.345D-02 0.431D-01-0.369D-01-0.199D+00-0.175D+00
 Coeff-Com:  0.137D+01
 Coeff:     -0.214D-04-0.345D-02 0.431D-01-0.369D-01-0.199D+00-0.175D+00
 Coeff:      0.137D+01
 Gap=     0.510 Goal=   None    Shift=    0.000
 Gap=     0.458 Goal=   None    Shift=    0.000
 RMSDP=5.29D-08 MaxDP=2.58D-06 DE=-4.46D-11 OVMax= 5.74D-06

 Cycle  89  Pass 1  IDiag  1:
 E= -435.137081581801     Delta-E=       -0.000000000024 Rises=F Damp=F
 DIIS: error= 9.59D-07 at cycle  89 NSaved=   8.
 NSaved= 8 IEnMin= 4 EnMin= -435.137081581827     IErMin= 6 ErrMin= 9.55D-07
 ErrMax= 9.59D-07  0.00D+00 EMaxC= 1.00D-01 BMatC= 9.86D-12 BMatP= 9.97D-12
 IDIUse=1 WtCom= 1.00D+00 WtEn= 0.00D+00
 Coeff-Com: -0.349D-03 0.615D-02 0.498D-02-0.187D-01-0.387D-01-0.130D+00
 Coeff-Com:  0.134D+00 0.104D+01
 Coeff:     -0.349D-03 0.615D-02 0.498D-02-0.187D-01-0.387D-01-0.130D+00
 Coeff:      0.134D+00 0.104D+01
 Gap=     0.510 Goal=   None    Shift=    0.000
 Gap=     0.458 Goal=   None    Shift=    0.000
 RMSDP=3.02D-08 MaxDP=1.47D-06 DE=-2.41D-11 OVMax= 3.32D-06

 Cycle  90  Pass 1  IDiag  1:
 E= -435.137081581815     Delta-E=       -0.000000000015 Rises=F Damp=F
 DIIS: error= 9.59D-07 at cycle  90 NSaved=   9.
 NSaved= 9 IEnMin= 4 EnMin= -435.137081581827     IErMin= 6 ErrMin= 9.55D-07
 ErrMax= 9.59D-07  0.00D+00 EMaxC= 1.00D-01 BMatC= 9.88D-12 BMatP= 9.86D-12
 IDIUse=1 WtCom= 1.00D+00 WtEn= 0.00D+00
 Coeff-Com: -0.471D-03 0.875D-02-0.551D-02-0.176D-01 0.222D-02-0.148D-01
 Coeff-Com: -0.256D+00 0.566D+00 0.718D+00
 Coeff:     -0.471D-03 0.875D-02-0.551D-02-0.176D-01 0.222D-02-0.148D-01
 Coeff:     -0.256D+00 0.566D+00 0.718D+00
 Gap=     0.510 Goal=   None    Shift=    0.000
 Gap=     0.458 Goal=   None    Shift=    0.000
 RMSDP=2.92D-08 MaxDP=1.42D-06 DE=-1.47D-11 OVMax= 3.21D-06

 Cycle  91  Pass 1  IDiag  1:
 E= -435.137081581829     Delta-E=       -0.000000000014 Rises=F Damp=F
 DIIS: error= 9.59D-07 at cycle  91 NSaved=  10.
[...]
      6                            6                                  2              0         9 5                             0    1
 
      X                            X                                  X              X         X X                             X    X
      X                            X                                  X              X                                               
      X                            X                                  X              X                                               
      X                            X                                  X              X                                               
      X                            X                                                                                                 
      X                            X                                                                                                 
      X                            X                                                                                                 
      X                            X                                                                                                 
      X                            X                                                                                                 
      X                            X                                                                                                 
      X                            X                                                                                                 
      X                            X                                                                                                 
      X                            X                                                                                                 
      X                            X                                                                                                 
      X                            X                                                                                                 
      X                                                                                                                              
      X                                                                                                                              
      X                                                                                                                              
      X                                                                                                                              
      X                                                                                                                              
 
 
                                                          Distorted Ethanol
                                                            Raman Spectrum
 
      2                            1                                  1                                                              
      1                            6                                  0              8         6 6                             1     
      7                            6                                  6              2         3 0                             0     
      6                            6                                  2              0         9 5                             0    1
 
      X                            X                                  X              X         X X                             X     
                                   X                                  X              X         X X                                   
                                   X                                  X                        X X                                   
                                   X                                  X                        X                                     
                                                                      X                                                              
                                                                      X                                                              
                                                                      X                                                              
                                                                      X                                                              
                                                                      X                                                              
                                                                      X                                                              
                                                                      X                                                              
                                                                      X                                                              
                                                                      X                                                              
                                                                      X                                                              
                                                                      X                                                              
                                                                      X                                                              
                                                                      X                                                              
                                                                      X                                                              
                                                                      X                                                              
                                                                      X                                                              
 
 Forces in standard orientation:
 -------------------------------------------------------------------
 Center     Atomic                   Forces (Hartrees/Bohr)
 Number     Number              X              Y              Z
 -------------------------------------------------------------------
      1        6          -0.087161753   -0.183030893   -0.011096133
      2        9           0.035613734    0.075219639   -0.022916814
      3        9           0.030449971    0.091991034    0.080164143
      4        9           0.000004103   -0.000000220   -0.000000037
      5        9           0.021093946    0.015820439   -0.046151159
 -------------------------------------------------------------------
 ***** Axes restored to original set *****
 Rotating derivatives, DoTrsp=F IDiff=-2 LEDeriv=    772 LFDPrp=       0 LDFDPr=       0.
 -------------------------------------------------------------------
 Center     Atomic                   Forces (Hartrees/Bohr)
 Number     Number              X              Y              Z
 -------------------------------------------------------------------
      1        6           0.188072502    0.006403317   -0.076212430
      2        9          -0.085626553   -0.009165759    0.005966137
      3        9          -0.067767869    0.026960283    0.102452428
      4        9          -0.000001030   -0.000003759    0.000001300
      5        9          -0.034677050   -0.024194081   -0.032207436
 -------------------------------------------------------------------
 Cartesian Forces:  Max     0.188072502 RMS     0.066989117
 Z-matrix is all fixed cartesians, so copy forces.
 Force constants in Cartesian coordinates: 
                1             2             3             4             5 
      1  0.682965D+00
      2 -0.326029D+00  0.552163D+00
      3 -0.105223D+00  0.270116D+00  0.144248D+01
      4 -0.292113D+00  0.759051D-01 -0.241354D-01  0.396929D+00
      5  0.488494D-01 -0.139335D+00  0.421219D-02 -0.135771D+00  0.114511D+00
      6 -0.170830D-01  0.574032D-02 -0.127729D+00  0.386747D-01 -0.448290D-02
      7 -0.235418D+00  0.210357D+00  0.307521D+00 -0.559144D-01  0.542520D-01
      8  0.225403D+00 -0.303780D+00 -0.393430D+00  0.371673D-01  0.362022D-02
      9  0.311708D+00 -0.376547D+00 -0.651495D+00  0.304670D-01 -0.216463D-01
     10  0.000000D+00  0.000000D+00  0.000000D+00  0.000000D+00  0.000000D+00
     11  0.000000D+00  0.000000D+00  0.000000D+00  0.000000D+00  0.000000D+00
     12  0.000000D+00  0.000000D+00  0.000000D+00  0.000000D+00  0.000000D+00
     13 -0.155435D+00  0.397680D-01 -0.178163D+00 -0.489020D-01  0.326699D-01
     14  0.517766D-01 -0.109046D+00  0.119101D+00  0.226990D-01  0.212036D-01
     15 -0.189402D+00  0.100691D+00 -0.663261D+00 -0.450064D-01  0.219171D-01
                6             7             8             9            10 
      6  0.136023D+00
      7  0.488765D-01  0.252833D+00
      8 -0.268565D-01 -0.264580D+00  0.271417D+00
      9  0.112915D-01 -0.360513D+00  0.437642D+00  0.765013D+00
     10  0.000000D+00  0.000000D+00  0.000000D+00  0.000000D+00  0.000000D+00
     11  0.000000D+00  0.000000D+00  0.000000D+00  0.000000D+00  0.000000D+00
     12  0.000000D+00  0.000000D+00  0.000000D+00  0.000000D+00  0.000000D+00
     13 -0.704682D-01  0.384991D-01  0.200924D-02  0.183380D-01  0.000000D+00
     14  0.255992D-01 -0.285893D-04  0.287428D-01 -0.394484D-01  0.000000D+00
     15 -0.195861D-01  0.411495D-02 -0.173561D-01 -0.124809D+00  0.000000D+00
               11            12            13            14            15 
     11  0.000000D+00
     12  0.000000D+00  0.000000D+00
     13  0.000000D+00  0.000000D+00  0.165838D+00
     14  0.000000D+00  0.000000D+00 -0.744471D-01  0.591000D-01
     15  0.000000D+00  0.000000D+00  0.230293D+00 -0.105252D+00  0.807656D+00
 Final forces over variables, Energy=-4.35137082D+02:
  1.88072502D-01-8.56265529D-02-6.77678691D-02-1.02993466D-06
 -3.46770504D-02 6.40331676D-03-9.16575936D-03 2.69602825D-02
 -3.75929613D-06-2.41940806D-02-7.62124296D-02 5.96613722D-03
  1.02452428D-01 1.30045259D-06-3.22074359D-02
 Leave Link  716 at Sat Mar  4 13:29:33 2017, MaxMem=   655360000 cpu:         0.1
 (Enter /mnt/software/gaussian/g09/l103.exe)

 GradGradGradGradGradGradGradGradGradGradGradGradGradGradGradGradGradGrad
 Berny optimization.
 Search for a local minimum.
 Step number   1 out of a maximum of    2
 All quantities printed in internal units (Hartrees-Bohrs-Radians)
 Second derivative matrix not updated -- analytic derivatives used.
 The second derivative matrix:
                          X1        Y1        Z1        X2        Y2
           X1           0.68297
           Y1          -0.32603   0.55216
           Z1          -0.10522   0.27012   1.44248
           X2          -0.29211   0.07591  -0.02414   0.39693
           Y2           0.04885  -0.13934   0.00421  -0.13577   0.11451
           Z2          -0.01708   0.00574  -0.12773   0.03867  -0.00448
           X3          -0.23542   0.21036   0.30752  -0.05591   0.05425
           Y3           0.22540  -0.30378  -0.39343   0.03717   0.00362
           Z3           0.31171  -0.37655  -0.65150   0.03047  -0.02165
           X4           0.00000   0.00000   0.00000   0.00000   0.00000
           Y4           0.00000   0.00000   0.00000   0.00000   0.00000
           Z4           0.00000   0.00000   0.00000   0.00000   0.00000
           X5          -0.15544   0.03977  -0.17816  -0.04890   0.03267
           Y5           0.05178  -0.10905   0.11910   0.02270   0.02120
           Z5          -0.18940   0.10069  -0.66326  -0.04501   0.02192
                          Z2        X3        Y3        Z3        X4
           Z2           0.13602
           X3           0.04888   0.25283
           Y3          -0.02686  -0.26458   0.27142
           Z3           0.01129  -0.36051   0.43764   0.76501
           X4           0.00000   0.00000   0.00000   0.00000   0.00000
           Y4           0.00000   0.00000   0.00000   0.00000   0.00000
           Z4           0.00000   0.00000   0.00000   0.00000   0.00000
           X5          -0.07047   0.03850   0.00201   0.01834   0.00000
           Y5           0.02560  -0.00003   0.02874  -0.03945   0.00000
           Z5          -0.01959   0.00411  -0.01736  -0.12481   0.00000
                          Y4        Z4        X5        Y5        Z5
           Y4           0.00000
           Z4           0.00000   0.00000
           X5           0.00000   0.00000   0.16584
           Y5           0.00000   0.00000  -0.07445   0.05910
           Z5           0.00000   0.00000   0.23029  -0.10525   0.80766
 ITU=  0
     Eigenvalues ---   -0.03981   0.00000   0.00713   0.25018   0.28056
     Eigenvalues ---    0.34458   0.72933   1.55698   2.50602
 Eigenvalue     1 is  -3.98D-02 should be greater than     0.000000 Eigenvector:
                          Y3        Y5        X3        X5        Z3
   1                    0.72130  -0.48858   0.30724  -0.18677  -0.18002
                          Y2        Z2        Z1        X2        Z4
   1                   -0.14583   0.13511   0.10322  -0.09051  -0.09018
 Quadratic step=5.765D+00 exceeds max=3.000D-01 adjusted using Lamda=-1.952D-01.
 Angle between NR and scaled steps=  80.55 degrees.
 Angle between quadratic step and forces=  36.44 degrees.
 Linear search not attempted -- first point.
 TrRot= -0.006439 -0.005033  0.001794  0.160822  0.000078 -0.160571
 Variable       Old X    -DE/DX   Delta X   Delta X   Delta X     New X
                                 (Linear)    (Quad)   (Total)
    X1        0.18875   0.18807   0.00000   0.20797   0.19906   0.38781
    Y1        9.14802   0.00640   0.00000   0.14501   0.14005   9.28807
    Z1       -1.85707  -0.07621   0.00000  -0.04969  -0.04804  -1.90511
    X2        2.55335  -0.08563   0.00000  -0.06933  -0.07801   2.47533
    Y2        8.45105  -0.00917   0.00000  -0.00335  -0.00778   8.44327
    Z2       -1.66485   0.00597   0.00000   0.00361   0.00510  -1.65974
    X3       -0.68799  -0.06777   0.00000  -0.05307  -0.06207  -0.75006
    Y3       10.24667   0.02696   0.00000  -0.06707  -0.07229  10.17438
    Z3       -0.19836   0.10245   0.00000   0.06902   0.07075  -0.12762
    X4       -7.35495   0.00000   0.00000  -0.00211  -0.00456  -7.35950
    Y4      -13.87857   0.00000   0.00000   0.00910   0.00232 -13.87626
    Z4        6.73812   0.00000   0.00000  -0.00122   0.00132   6.73943
    X5       -0.45668  -0.03468   0.00000  -0.04529  -0.05442  -0.51111
    Y5        9.57828  -0.02419   0.00000  -0.05708  -0.06229   9.51599
    Z5       -3.98925  -0.03221   0.00000  -0.03084  -0.02913  -4.01837
         Item               Value     Threshold  Converged?
 Maximum Force            0.188073     0.000450     NO 
 RMS     Force            0.066989     0.000300     NO 
 Maximum Displacement     0.199064     0.001800     NO 
 RMS     Displacement     0.077254     0.001200     NO 
 Predicted change in Energy=-4.025671D-02
 GradGradGradGradGradGradGradGradGradGradGradGradGradGradGradGradGradGrad

 Leave Link  103 at Sat Mar  4 13:29:33 2017, MaxMem=   655360000 cpu:         0.1
 (Enter /mnt/software/gaussian/g09/l9999.exe)

 Test job not archived.
 1\1\GINC-TP-LINUX1\Freq\UHF\6-31G(d)\C1F4(1+,2)\THOMAS\04-Mar-2017\0\\
 #P UHF/6-31g* IOP(7/33=1) IOP(7/8=11) Freq\\Distorted Ethanol\\1,2\C,0
 .09988,4.840925,-0.98272\F,1.351173,4.472105,-0.880999\F,-0.36407,5.42
 2303,-0.10497\F,-3.89207,-7.344224,3.565658\F,-0.241667,5.068608,-2.11
 1018\\Version=ES64L-G09RevD.01\State=2-A\HF=-435.1370816\S2=0.752672\S
 2-1=0.\S2A=0.750003\RMSD=1.510e-10\RMSF=6.699e-02\ZeroPoint=0.0161074\
 Thermal=0.0210178\Dipole=1.1959753,4.7698498,-1.7069725\DipoleDeriv=2.
 1416484,-0.4540629,0.0298921,-0.4932436,1.5381717,0.1829318,0.0356998,
 0.1754313,2.5246406,-0.5765297,0.2249421,-0.0626337,0.1048286,-0.19480
 26,-0.0011421,-0.0353691,0.0043979,-0.2334014,-0.3042762,0.1628594,0.1
 944009,0.257069,-0.2194632,-0.3126449,0.2123347,-0.1957858,-0.5811493,
 0.0000802,-0.0000816,0.0000294,-0.0000803,-0.0001505,0.0000937,0.00003
 09,0.0000918,0.0000691,-0.2609226,0.066343,-0.1616886,0.1314264,-0.123
 7553,0.1307615,-0.2126963,0.0158648,-0.7101591\Polar=12.2331975,-1.480
 297,9.5065174,0.1773123,0.3146272,12.22754\PolarDeriv=-2.9222726,-0.38
 92805,-0.1360499,0.0994383,0.0122814,-0.28236,-0.7683972,-0.6205481,-1
 .897149,0.0081663,0.1483991,-1.0279881,0.1040031,-0.0096811,0.0371215,
 -0.5873645,-0.8365084,0.6989578,5.8411675,-1.0462758,0.7833072,0.29982
 81,0.0259639,1.1582151,-0.8729374,1.6982229,-0.850275,-0.0181803,0.047
 1623,-0.2000756,0.2106091,-0.0077213,-0.0408169,1.7955445,-0.5635025,0
 .3954736,-1.6935996,0.9720962,-0.4842077,1.121084,-0.2644542,-0.432035
 2,1.0309056,-0.6849461,1.9527298,-0.1561232,1.0770701,0.9046871,0.7838
 357,-0.2811366,0.8734732,-0.5892733,0.9632475,3.4184397,-0.0014208,-0.
 0015876,0.0012404,0.0006419,-0.0004857,0.0000907,0.000061,0.000374,-0.
 0004472,-0.0003717,-0.0005685,0.0002306,-0.0000439,-0.0004663,-0.00136
 1,-0.0005681,-0.0015003,0.0014913,-1.2238745,0.4650478,-0.1642899,-1.5
 209923,0.2266945,-0.4439105,0.610368,-0.3931027,0.7951414,0.1665088,-1
 .272063,0.323146,-1.0984041,0.2990053,-0.8684168,-0.6183386,0.4382637,
 -4.5143624\HyperPolar=-14.2690432,-1.8626689,1.0152493,-5.1468716,-0.2
 263333,0.3174086,-1.7619327,2.7293011,-6.90404,6.4327267\PG=C01 [X(C1F
 4)]\NImag=1\\0.68296511,-0.32602915,0.55216270,-0.10522314,0.27011611,
 1.44248451,-0.29211276,0.07590506,-0.02413536,0.39692918,0.04884944,-0
 .13933533,0.00421219,-0.13577132,0.11451144,-0.01708301,0.00574032,-0.
 12772872,0.03867470,-0.00448290,0.13602340,-0.23541756,0.21035663,0.30
 752115,-0.05591441,0.05425204,0.04887655,0.25283290,0.22540346,-0.3037
 8028,-0.39342964,0.03716728,0.00362022,-0.02685652,-0.26458014,0.27141
 722,0.31170785,-0.37654735,-0.65149523,0.03046700,-0.02164628,0.011291
 51,-0.36051273,0.43764211,0.76501250,0.00000024,-0.00000050,0.00000009
 ,0.00000003,-0.00000004,-0.00000004,-0.00000004,0.00000016,-0.00000009
 ,-0.00000023,-0.00000031,-0.00000062,0.00000054,-0.00000001,0.00000007
 ,-0.00000008,0.00000006,0.00000001,-0.00000010,0.00000022,0.00000047,-
 0.00000016,0.00000023,0.00000036,0.00000002,-0.00000014,-0.00000011,0.
 00000009,0.00000010,-0.00000014,-0.00000008,-0.00000027,-0.00000019,-0
 .15543503,0.03976796,-0.17816274,-0.04890204,0.03266989,-0.07046821,0.
 03849911,0.00200924,0.01833796,0.,0.00000003,0.00000013,0.16583796,0.0
 5177657,-0.10904647,0.11910080,0.02269899,0.02120360,0.02559918,-0.000
 02859,0.02874282,-0.03944838,0.00000016,0.00000006,0.00000008,-0.07444
 713,0.05909999,-0.18940155,0.10069069,-0.66326092,-0.04500637,0.021917
 13,-0.01958608,0.00411495,-0.01735605,-0.12480864,0.00000011,-0.000000
 10,0.00000009,0.23029285,-0.10525168,0.80765555\\-0.18807250,-0.006403
 32,0.07621243,0.08562655,0.00916576,-0.00596614,0.06776787,-0.02696028
 ,-0.10245243,0.00000103,0.00000376,-0.00000130,0.03467705,0.02419408,0
 .03220744\\\@


            THE IRISH PIG
 'TWAS AN EVENING IN NOVEMBER,
 AS I VERY WELL REMEMBER
 I WAS STROLLING DOWN THE STREET IN DRUNKEN PRIDE,
 BUT MY KNEES WERE ALL A'FLUTTER
 SO I LANDED IN THE GUTTER,
 AND A PIG CAME UP AND LAY DOWN BY MY SIDE.

 YES, I LAY THERE IN THE GUTTER
 THINKING THOUGHTS I COULD NOT UTTER
 WHEN A COLLEEN PASSING BY DID SOFTLY SAY,
 'YE CAN TELL A MAN THAT BOOZES
 BY THE COMPANY THAT HE CHOOSES.' -
 AT THAT, THE PIG GOT UP AND WALKED AWAY!
     -- THE ECONOMIST, AUGUST 23, 1986
 Job cpu time:       0 days  0 hours  0 minutes 28.7 seconds.
 File lengths (MBytes):  RWF=     12 Int=      0 D2E=      0 Chk=      2 Scr=      1
 Normal termination of Gaussian 09 at Sat Mar  4 13:29:33 2017.
