 Entering Gaussian System, Link 0=g09
 Input=/home/thomas/cf4/DD-vMCG/dd_data/gwp15_V1_dd_data.com
 Output=/home/thomas/cf4/DD-vMCG/dd_data/gwp15_V1_dd_data.log
 Initial command:
 /mnt/software/gaussian/g09/l1.exe "/scratch/Gau-32239.inp" -scrdir="/scratch/"
 Entering Link 1 = /mnt/software/gaussian/g09/l1.exe PID=     32242.
  
 Copyright (c) 1988,1990,1992,1993,1995,1998,2003,2009,2013,
            Gaussian, Inc.  All Rights Reserved.
  
 This is part of the Gaussian(R) 09 program.  It is based on
 the Gaussian(R) 03 system (copyright 2003, Gaussian, Inc.),
 the Gaussian(R) 98 system (copyright 1998, Gaussian, Inc.),
 the Gaussian(R) 94 system (copyright 1995, Gaussian, Inc.),
 the Gaussian 92(TM) system (copyright 1992, Gaussian, Inc.),
 the Gaussian 90(TM) system (copyright 1990, Gaussian, Inc.),
 the Gaussian 88(TM) system (copyright 1988, Gaussian, Inc.),
 the Gaussian 86(TM) system (copyright 1986, Carnegie Mellon
 University), and the Gaussian 82(TM) system (copyright 1983,
 Carnegie Mellon University). Gaussian is a federally registered
 trademark of Gaussian, Inc.
  
 This software contains proprietary and confidential information,
 including trade secrets, belonging to Gaussian, Inc.
  
 This software is provided under written license and may be
 used, copied, transmitted, or stored only in accord with that
 written license.
  
 The following legend is applicable only to US Government
 contracts under FAR:
  
                    RESTRICTED RIGHTS LEGEND
  
 Use, reproduction and disclosure by the US Government is
 subject to restrictions as set forth in subparagraphs (a)
 and (c) of the Commercial Computer Software - Restricted
 Rights clause in FAR 52.227-19.
  
 Gaussian, Inc.
 340 Quinnipiac St., Bldg. 40, Wallingford CT 06492
  
  
 ---------------------------------------------------------------
 Warning -- This program may not be used in any manner that
 competes with the business of Gaussian, Inc. or will provide
 assistance to any competitor of Gaussian, Inc.  The licensee
 of this program is prohibited from giving any competitor of
 Gaussian, Inc. access to this program.  By using this program,
 the user acknowledges that Gaussian, Inc. is engaged in the
 business of creating and licensing software in the field of
 computational chemistry and represents and warrants to the
 licensee that it is not a competitor of Gaussian, Inc. and that
 it will not use this program in any manner prohibited above.
 ---------------------------------------------------------------
  

 Cite this work as:
 Gaussian 09, Revision D.01,
 M. J. Frisch, G. W. Trucks, H. B. Schlegel, G. E. Scuseria, 
 M. A. Robb, J. R. Cheeseman, G. Scalmani, V. Barone, B. Mennucci, 
 G. A. Petersson, H. Nakatsuji, M. Caricato, X. Li, H. P. Hratchian, 
 A. F. Izmaylov, J. Bloino, G. Zheng, J. L. Sonnenberg, M. Hada, 
 M. Ehara, K. Toyota, R. Fukuda, J. Hasegawa, M. Ishida, T. Nakajima, 
 Y. Honda, O. Kitao, H. Nakai, T. Vreven, J. A. Montgomery, Jr., 
 J. E. Peralta, F. Ogliaro, M. Bearpark, J. J. Heyd, E. Brothers, 
 K. N. Kudin, V. N. Staroverov, T. Keith, R. Kobayashi, J. Normand, 
 K. Raghavachari, A. Rendell, J. C. Burant, S. S. Iyengar, J. Tomasi, 
 M. Cossi, N. Rega, J. M. Millam, M. Klene, J. E. Knox, J. B. Cross, 
 V. Bakken, C. Adamo, J. Jaramillo, R. Gomperts, R. E. Stratmann, 
 O. Yazyev, A. J. Austin, R. Cammi, C. Pomelli, J. W. Ochterski, 
 R. L. Martin, K. Morokuma, V. G. Zakrzewski, G. A. Voth, 
 P. Salvador, J. J. Dannenberg, S. Dapprich, A. D. Daniels, 
 O. Farkas, J. B. Foresman, J. V. Ortiz, J. Cioslowski, 
 and D. J. Fox, Gaussian, Inc., Wallingford CT, 2013.
 
 ******************************************
 Gaussian 09:  ES64L-G09RevD.01 24-Apr-2013
                 4-Mar-2017 
 ******************************************
 %mem=5000MB
 %Nprocshared=6
 Will use up to    6 processors via shared memory.
 %chk=gwp15_V1_dd_data.chk
 ------------------------------------------
 #P UHF/6-31g* IOP(7/33=1) IOP(7/8=11) Freq
 ------------------------------------------
 1/10=4,30=1,38=1/1,3;
 2/12=2,17=6,18=5,40=1/2;
 3/5=1,6=6,7=1,11=2,16=1,25=1,30=1,71=2,116=2,140=1/1,2,3;
 4//1;
 5/5=2,38=5,98=1/2;
 8/6=4,10=90,11=11/1;
 10/13=10,15=4/2;
 11/6=3,8=1,9=11,15=111,16=1/1,2,10;
 10/6=1/2;
 6/7=2,8=2,9=2,10=2,18=1,28=1/1;
 7/8=11,10=1,25=1,33=1/1,2,3,16;
 1/10=4,30=1/3;
 99//99;
 Leave Link    1 at Sat Mar  4 13:43:09 2017, MaxMem=   655360000 cpu:         0.2
 (Enter /mnt/software/gaussian/g09/l101.exe)
 -----------------
 Distorted Ethanol
 -----------------
 Symbolic Z-matrix:
 Charge =  1 Multiplicity = 2
 6                    -0.05176   4.3954   -0.87313 
 9                     1.13296   4.06825  -0.65351 
 9                    -0.49181   5.13172   0.07648 
 9                    -3.67311  -6.85479   3.39552 
 9                    -0.24581   4.90631  -1.95985 
 
 NAtoms=      5 NQM=        5 NQMF=       0 NMMI=      0 NMMIF=      0
                NMic=       0 NMicF=      0.
                    Isotopes and Nuclear Properties:
 (Nuclear quadrupole moments (NQMom) in fm**2, nuclear magnetic moments (NMagM)
  in nuclear magnetons)

  Atom         1           2           3           4           5
 IAtWgt=          12          19          19          19          19
 AtmWgt=  12.0000000  18.9984033  18.9984033  18.9984033  18.9984033
 NucSpn=           0           1           1           1           1
 AtZEff=   0.0000000   0.0000000   0.0000000   0.0000000   0.0000000
 NQMom=    0.0000000   0.0000000   0.0000000   0.0000000   0.0000000
 NMagM=    0.0000000   2.6288670   2.6288670   2.6288670   2.6288670
 AtZNuc=   6.0000000   9.0000000   9.0000000   9.0000000   9.0000000
 Leave Link  101 at Sat Mar  4 13:43:09 2017, MaxMem=   655360000 cpu:         0.3
 (Enter /mnt/software/gaussian/g09/l103.exe)

 GradGradGradGradGradGradGradGradGradGradGradGradGradGradGradGradGradGrad
 Berny optimization.
 Initialization pass.
 Trust Radius=3.00D-01 FncErr=1.00D-07 GrdErr=1.00D-07
 Number of steps in this run=      2 maximum allowed number of steps=      2.
 GradGradGradGradGradGradGradGradGradGradGradGradGradGradGradGradGradGrad

 Leave Link  103 at Sat Mar  4 13:43:09 2017, MaxMem=   655360000 cpu:         0.1
 (Enter /mnt/software/gaussian/g09/l202.exe)
                          Input orientation:                          
 ---------------------------------------------------------------------
 Center     Atomic      Atomic             Coordinates (Angstroms)
 Number     Number       Type             X           Y           Z
 ---------------------------------------------------------------------
      1          6           0       -0.051761    4.395403   -0.873127
      2          9           0        1.132957    4.068248   -0.653506
      3          9           0       -0.491813    5.131721    0.076484
      4          9           0       -3.673113   -6.854787    3.395523
      5          9           0       -0.245806    4.906310   -1.959851
 ---------------------------------------------------------------------
                    Distance matrix (angstroms):
                    1          2          3          4          5
     1  C    0.000000
     2  F    1.248527   0.000000
     3  F    1.279676   2.074545   0.000000
     4  F   12.565920  12.601811  12.837954   0.000000
     5  F    1.216408   2.076023   2.063490  13.369737   0.000000
 Stoichiometry    CF4(1+,2)
 Framework group  C1[X(CF4)]
 Deg. of freedom     9
 Full point group                 C1      NOp   1
 Largest Abelian subgroup         C1      NOp   1
 Largest concise Abelian subgroup C1      NOp   1
                         Standard orientation:                         
 ---------------------------------------------------------------------
 Center     Atomic      Atomic             Coordinates (Angstroms)
 Number     Number       Type             X           Y           Z
 ---------------------------------------------------------------------
      1          6           0       -2.487633   -0.021263    0.116528
      2          9           0       -2.464293   -0.848552   -0.818281
      3          9           0       -2.701867    1.155612   -0.338049
      4          9           0       10.078127    0.003229    0.057969
      5          9           0       -3.253544   -0.296114    1.020677
 ---------------------------------------------------------------------
 Rotational constants (GHZ):      6.6819658      0.2026418      0.2021707
 Leave Link  202 at Sat Mar  4 13:43:09 2017, MaxMem=   655360000 cpu:         0.0
 (Enter /mnt/software/gaussian/g09/l301.exe)
 Standard basis: 6-31G(d) (6D, 7F)
 Ernie: Thresh=  0.10000D-02 Tol=  0.10000D-05 Strict=F.
 There are    75 symmetry adapted cartesian basis functions of A   symmetry.
 There are    75 symmetry adapted basis functions of A   symmetry.
    75 basis functions,   140 primitive gaussians,    75 cartesian basis functions
    21 alpha electrons       20 beta electrons
       nuclear repulsion energy       143.0103993121 Hartrees.
 IExCor=    0 DFT=F Ex=HF Corr=None ExCW=0 ScaHFX=  1.000000
 ScaDFX=  1.000000  1.000000  1.000000  1.000000 ScalE2=  1.000000  1.000000
 IRadAn=      0 IRanWt=     -1 IRanGd=            0 ICorTp=0 IEmpDi=  4
 NAtoms=    5 NActive=    5 NUniq=    5 SFac= 1.00D+00 NAtFMM=   60 NAOKFM=F Big=F
 Integral buffers will be    131072 words long.
 Raffenetti 2 integral format.
 Two-electron integral symmetry is turned on.
 Leave Link  301 at Sat Mar  4 13:43:09 2017, MaxMem=   655360000 cpu:         0.2
 (Enter /mnt/software/gaussian/g09/l302.exe)
 NPDir=0 NMtPBC=     1 NCelOv=     1 NCel=       1 NClECP=     1 NCelD=      1
         NCelK=      1 NCelE2=     1 NClLst=     1 CellRange=     0.0.
 One-electron integrals computed using PRISM.
 NBasis=    75 RedAO= T EigKep=  3.03D-03  NBF=    75
 NBsUse=    75 1.00D-06 EigRej= -1.00D+00 NBFU=    75
 Leave Link  302 at Sat Mar  4 13:43:10 2017, MaxMem=   655360000 cpu:         0.7
 (Enter /mnt/software/gaussian/g09/l303.exe)
 DipDrv:  MaxL=1.
 Leave Link  303 at Sat Mar  4 13:43:10 2017, MaxMem=   655360000 cpu:         0.1
 (Enter /mnt/software/gaussian/g09/l401.exe)
 ExpMin= 1.69D-01 ExpMax= 7.00D+03 ExpMxC= 1.05D+03 IAcc=1 IRadAn=         1 AccDes= 0.00D+00
 Harris functional with IExCor=  205 and IRadAn=       1 diagonalized for initial guess.
 HarFok:  IExCor=  205 AccDes= 0.00D+00 IRadAn=         1 IDoV= 1 UseB2=F ITyADJ=14
 ICtDFT=  3500011 ScaDFX=  1.000000  1.000000  1.000000  1.000000
 FoFCou: FMM=F IPFlag=           0 FMFlag=      100000 FMFlg1=           0
         NFxFlg=           0 DoJE=T BraDBF=F KetDBF=T FulRan=T
         wScrn=  0.000000 ICntrl=     500 IOpCl=  0 I1Cent=   200000004 NGrid=           0
         NMat0=    1 NMatS0=      1 NMatT0=    0 NMatD0=    1 NMtDS0=    0 NMtDT0=    0
 Petite list used in FoFCou.
 Harris En= -435.001240531307    
 JPrj=0 DoOrth=F DoCkMO=F.
 Initial guess <Sx>= 0.0000 <Sy>= 0.0000 <Sz>= 0.5000 <S**2>= 0.7500 S= 0.5000
 Leave Link  401 at Sat Mar  4 13:43:10 2017, MaxMem=   655360000 cpu:         0.8
 (Enter /mnt/software/gaussian/g09/l502.exe)
 UHF open shell SCF:
 Using DIIS extrapolation, IDIIS=  1040.
 Integral symmetry usage will be decided dynamically.
 Keep R1 and R2 ints in memory in canonical form, NReq=8999630.
 IVT=       36430 IEndB=       36430 NGot=   655360000 MDV=   647198221
 LenX=   647198221 LenY=   647192155
 Requested convergence on RMS density matrix=1.00D-08 within 128 cycles.
 Requested convergence on MAX density matrix=1.00D-06.
 Requested convergence on             energy=1.00D-06.
 No special actions if energy rises.
 FoFCou: FMM=F IPFlag=           0 FMFlag=           0 FMFlg1=           0
         NFxFlg=           0 DoJE=F BraDBF=F KetDBF=F FulRan=T
         wScrn=  0.000000 ICntrl=     600 IOpCl=  0 I1Cent=           0 NGrid=           0
         NMat0=    1 NMatS0=   2850 NMatT0=    0 NMatD0=    1 NMtDS0=    0 NMtDT0=    0
 Symmetry not used in FoFCou.

 Cycle   1  Pass 1  IDiag  1:
 E= -435.019949536405    
 DIIS: error= 7.71D-02 at cycle   1 NSaved=   1.
 NSaved= 1 IEnMin= 1 EnMin= -435.019949536405     IErMin= 1 ErrMin= 7.71D-02
 ErrMax= 7.71D-02  0.00D+00 EMaxC= 1.00D-01 BMatC= 1.03D+00 BMatP= 1.03D+00
 IDIUse=3 WtCom= 2.29D-01 WtEn= 7.71D-01
 Coeff-Com:  0.100D+01
 Coeff-En:   0.100D+01
 Coeff:      0.100D+01
 Gap=     0.466 Goal=   None    Shift=    0.000
 Gap=     0.788 Goal=   None    Shift=    0.000
 GapD=    0.466 DampG=2.000 DampE=0.500 DampFc=1.0000 IDamp=-1.
 RMSDP=3.96D-03 MaxDP=6.42D-02              OVMax= 5.84D-02

 Cycle   2  Pass 1  IDiag  1:
 E= -435.090876056617     Delta-E=       -0.070926520212 Rises=F Damp=F
 DIIS: error= 1.41D-02 at cycle   2 NSaved=   2.
 NSaved= 2 IEnMin= 2 EnMin= -435.090876056617     IErMin= 2 ErrMin= 1.41D-02
 ErrMax= 1.41D-02  0.00D+00 EMaxC= 1.00D-01 BMatC= 7.37D-02 BMatP= 1.03D+00
 IDIUse=3 WtCom= 8.59D-01 WtEn= 1.41D-01
 Coeff-Com:  0.106D+00 0.894D+00
 Coeff-En:   0.000D+00 0.100D+01
 Coeff:      0.910D-01 0.909D+00
 Gap=     0.443 Goal=   None    Shift=    0.000
 Gap=     0.396 Goal=   None    Shift=    0.000
 RMSDP=1.51D-03 MaxDP=2.75D-02 DE=-7.09D-02 OVMax= 5.08D-02

 Cycle   3  Pass 1  IDiag  1:
 E= -435.101625348472     Delta-E=       -0.010749291856 Rises=F Damp=F
 DIIS: error= 7.28D-03 at cycle   3 NSaved=   3.
 NSaved= 3 IEnMin= 3 EnMin= -435.101625348472     IErMin= 3 ErrMin= 7.28D-03
 ErrMax= 7.28D-03  0.00D+00 EMaxC= 1.00D-01 BMatC= 2.12D-02 BMatP= 7.37D-02
 IDIUse=3 WtCom= 9.27D-01 WtEn= 7.28D-02
 Coeff-Com: -0.240D-01 0.325D+00 0.698D+00
 Coeff-En:   0.000D+00 0.000D+00 0.100D+01
 Coeff:     -0.222D-01 0.302D+00 0.720D+00
 Gap=     0.433 Goal=   None    Shift=    0.000
 Gap=     0.385 Goal=   None    Shift=    0.000
 RMSDP=4.90D-04 MaxDP=1.06D-02 DE=-1.07D-02 OVMax= 1.07D-02

 Cycle   4  Pass 1  IDiag  1:
 E= -435.104955389353     Delta-E=       -0.003330040881 Rises=F Damp=F
 DIIS: error= 1.23D-03 at cycle   4 NSaved=   4.
 NSaved= 4 IEnMin= 4 EnMin= -435.104955389353     IErMin= 4 ErrMin= 1.23D-03
 ErrMax= 1.23D-03  0.00D+00 EMaxC= 1.00D-01 BMatC= 3.96D-04 BMatP= 2.12D-02
 IDIUse=3 WtCom= 9.88D-01 WtEn= 1.23D-02
 Coeff-Com: -0.419D-02-0.612D-01-0.466D-01 0.111D+01
 Coeff-En:   0.000D+00 0.000D+00 0.000D+00 0.100D+01
 Coeff:     -0.414D-02-0.604D-01-0.460D-01 0.111D+01
 Gap=     0.434 Goal=   None    Shift=    0.000
 Gap=     0.384 Goal=   None    Shift=    0.000
 RMSDP=1.51D-04 MaxDP=1.99D-03 DE=-3.33D-03 OVMax= 4.51D-03

 Cycle   5  Pass 1  IDiag  1:
 E= -435.105126324818     Delta-E=       -0.000170935464 Rises=F Damp=F
 DIIS: error= 4.67D-04 at cycle   5 NSaved=   5.
 NSaved= 5 IEnMin= 5 EnMin= -435.105126324818     IErMin= 5 ErrMin= 4.67D-04
 ErrMax= 4.67D-04  0.00D+00 EMaxC= 1.00D-01 BMatC= 4.34D-05 BMatP= 3.96D-04
 IDIUse=3 WtCom= 9.95D-01 WtEn= 4.67D-03
 Coeff-Com:  0.367D-02-0.285D-01-0.731D-01-0.109D+00 0.121D+01
 Coeff-En:   0.000D+00 0.000D+00 0.000D+00 0.000D+00 0.100D+01
 Coeff:      0.366D-02-0.284D-01-0.728D-01-0.108D+00 0.121D+01
 Gap=     0.436 Goal=   None    Shift=    0.000
 Gap=     0.385 Goal=   None    Shift=    0.000
 RMSDP=6.26D-05 MaxDP=1.02D-03 DE=-1.71D-04 OVMax= 2.08D-03

 Cycle   6  Pass 1  IDiag  1:
 E= -435.105149907267     Delta-E=       -0.000023582450 Rises=F Damp=F
 DIIS: error= 1.06D-04 at cycle   6 NSaved=   6.
 NSaved= 6 IEnMin= 6 EnMin= -435.105149907267     IErMin= 6 ErrMin= 1.06D-04
 ErrMax= 1.06D-04  0.00D+00 EMaxC= 1.00D-01 BMatC= 2.34D-06 BMatP= 4.34D-05
 IDIUse=3 WtCom= 9.99D-01 WtEn= 1.06D-03
 Coeff-Com: -0.248D-03 0.631D-02 0.117D-01-0.420D-01-0.165D+00 0.119D+01
 Coeff-En:   0.000D+00 0.000D+00 0.000D+00 0.000D+00 0.000D+00 0.100D+01
 Coeff:     -0.248D-03 0.631D-02 0.117D-01-0.419D-01-0.165D+00 0.119D+01
 Gap=     0.436 Goal=   None    Shift=    0.000
 Gap=     0.385 Goal=   None    Shift=    0.000
 RMSDP=1.39D-05 MaxDP=2.46D-04 DE=-2.36D-05 OVMax= 4.36D-04

 Cycle   7  Pass 1  IDiag  1:
 E= -435.105151011785     Delta-E=       -0.000001104518 Rises=F Damp=F
 DIIS: error= 3.67D-05 at cycle   7 NSaved=   7.
 NSaved= 7 IEnMin= 7 EnMin= -435.105151011785     IErMin= 7 ErrMin= 3.67D-05
 ErrMax= 3.67D-05  0.00D+00 EMaxC= 1.00D-01 BMatC= 4.43D-07 BMatP= 2.34D-06
 IDIUse=1 WtCom= 1.00D+00 WtEn= 0.00D+00
 Coeff-Com: -0.429D-03 0.469D-02 0.103D-01-0.686D-03-0.165D+00 0.356D+00
 Coeff-Com:  0.795D+00
 Coeff:     -0.429D-03 0.469D-02 0.103D-01-0.686D-03-0.165D+00 0.356D+00
 Coeff:      0.795D+00
 Gap=     0.436 Goal=   None    Shift=    0.000
 Gap=     0.384 Goal=   None    Shift=    0.000
 RMSDP=3.58D-06 MaxDP=6.71D-05 DE=-1.10D-06 OVMax= 1.00D-04

 Cycle   8  Pass 1  IDiag  1:
 E= -435.105151123354     Delta-E=       -0.000000111569 Rises=F Damp=F
 DIIS: error= 9.88D-06 at cycle   8 NSaved=   8.
 NSaved= 8 IEnMin= 8 EnMin= -435.105151123354     IErMin= 8 ErrMin= 9.88D-06
 ErrMax= 9.88D-06  0.00D+00 EMaxC= 1.00D-01 BMatC= 2.95D-08 BMatP= 4.43D-07
 IDIUse=1 WtCom= 1.00D+00 WtEn= 0.00D+00
 Coeff-Com:  0.881D-04-0.129D-02-0.304D-02 0.478D-02 0.414D-01-0.170D+00
 Coeff-Com: -0.136D+00 0.126D+01
 Coeff:      0.881D-04-0.129D-02-0.304D-02 0.478D-02 0.414D-01-0.170D+00
 Coeff:     -0.136D+00 0.126D+01
 Gap=     0.436 Goal=   None    Shift=    0.000
 Gap=     0.384 Goal=   None    Shift=    0.000
 RMSDP=1.69D-06 MaxDP=2.91D-05 DE=-1.12D-07 OVMax= 5.19D-05

 Cycle   9  Pass 1  IDiag  1:
 E= -435.105151138701     Delta-E=       -0.000000015347 Rises=F Damp=F
 DIIS: error= 4.59D-06 at cycle   9 NSaved=   9.
 NSaved= 9 IEnMin= 9 EnMin= -435.105151138701     IErMin= 9 ErrMin= 4.59D-06
 ErrMax= 4.59D-06  0.00D+00 EMaxC= 1.00D-01 BMatC= 2.55D-09 BMatP= 2.95D-08
 IDIUse=1 WtCom= 1.00D+00 WtEn= 0.00D+00
 Coeff-Com:  0.444D-04-0.537D-03-0.123D-02 0.533D-03 0.190D-01-0.493D-01
 Coeff-Com: -0.903D-01 0.146D+00 0.975D+00
 Coeff:      0.444D-04-0.537D-03-0.123D-02 0.533D-03 0.190D-01-0.493D-01
 Coeff:     -0.903D-01 0.146D+00 0.975D+00
 Gap=     0.436 Goal=   None    Shift=    0.000
 Gap=     0.384 Goal=   None    Shift=    0.000
 RMSDP=4.63D-07 MaxDP=7.73D-06 DE=-1.53D-08 OVMax= 1.52D-05

 Cycle  10  Pass 1  IDiag  1:
 E= -435.105151139977     Delta-E=       -0.000000001276 Rises=F Damp=F
 DIIS: error= 1.17D-06 at cycle  10 NSaved=  10.
 NSaved=10 IEnMin=10 EnMin= -435.105151139977     IErMin=10 ErrMin= 1.17D-06
 ErrMax= 1.17D-06  0.00D+00 EMaxC= 1.00D-01 BMatC= 2.31D-10 BMatP= 2.55D-09
 IDIUse=1 WtCom= 1.00D+00 WtEn= 0.00D+00
 Coeff-Com: -0.146D-04 0.205D-03 0.475D-03-0.591D-03-0.676D-02 0.238D-01
 Coeff-Com:  0.238D-01-0.131D+00-0.188D+00 0.128D+01
 Coeff:     -0.146D-04 0.205D-03 0.475D-03-0.591D-03-0.676D-02 0.238D-01
 Coeff:      0.238D-01-0.131D+00-0.188D+00 0.128D+01
 Gap=     0.436 Goal=   None    Shift=    0.000
 Gap=     0.384 Goal=   None    Shift=    0.000
 RMSDP=2.02D-07 MaxDP=2.92D-06 DE=-1.28D-09 OVMax= 8.04D-06

 Cycle  11  Pass 1  IDiag  1:
 E= -435.105151140177     Delta-E=       -0.000000000200 Rises=F Damp=F
 DIIS: error= 6.67D-07 at cycle  11 NSaved=  11.
 NSaved=11 IEnMin=11 EnMin= -435.105151140177     IErMin=11 ErrMin= 6.67D-07
 ErrMax= 6.67D-07  0.00D+00 EMaxC= 1.00D-01 BMatC= 3.23D-11 BMatP= 2.31D-10
 IDIUse=1 WtCom= 1.00D+00 WtEn= 0.00D+00
 Coeff-Com:  0.237D-05-0.404D-04-0.934D-04 0.203D-03 0.118D-02-0.516D-02
 Coeff-Com: -0.445D-02 0.426D-01-0.535D-02-0.503D+00 0.147D+01
 Coeff:      0.237D-05-0.404D-04-0.934D-04 0.203D-03 0.118D-02-0.516D-02
 Coeff:     -0.445D-02 0.426D-01-0.535D-02-0.503D+00 0.147D+01
 Gap=     0.436 Goal=   None    Shift=    0.000
 Gap=     0.384 Goal=   None    Shift=    0.000
 RMSDP=8.56D-08 MaxDP=1.58D-06 DE=-2.00D-10 OVMax= 3.83D-06

 Cycle  12  Pass 1  IDiag  1:
 E= -435.105151140212     Delta-E=       -0.000000000035 Rises=F Damp=F
 DIIS: error= 6.67D-07 at cycle  12 NSaved=  12.
 NSaved=12 IEnMin=12 EnMin= -435.105151140212     IErMin=12 ErrMin= 6.67D-07
 ErrMax= 6.67D-07  0.00D+00 EMaxC= 1.00D-01 BMatC= 1.02D-11 BMatP= 3.23D-11
 IDIUse=1 WtCom= 1.00D+00 WtEn= 0.00D+00
 Coeff-Com:  0.131D-05-0.194D-04-0.419D-04 0.642D-04 0.586D-03-0.217D-02
 Coeff-Com: -0.231D-02 0.140D-01 0.133D-01-0.137D+00 0.906D-01 0.102D+01
 Coeff:      0.131D-05-0.194D-04-0.419D-04 0.642D-04 0.586D-03-0.217D-02
 Coeff:     -0.231D-02 0.140D-01 0.133D-01-0.137D+00 0.906D-01 0.102D+01
 Gap=     0.436 Goal=   None    Shift=    0.000
 Gap=     0.384 Goal=   None    Shift=    0.000
 RMSDP=3.02D-08 MaxDP=1.16D-06 DE=-3.50D-11 OVMax= 2.79D-06

 Cycle  13  Pass 1  IDiag  1:
 E= -435.105151140226     Delta-E=       -0.000000000013 Rises=F Damp=F
 DIIS: error= 6.67D-07 at cycle  13 NSaved=  13.
 NSaved=13 IEnMin=13 EnMin= -435.105151140226     IErMin=13 ErrMin= 6.67D-07
 ErrMax= 6.67D-07  0.00D+00 EMaxC= 1.00D-01 BMatC= 8.49D-12 BMatP= 1.02D-11
 IDIUse=1 WtCom= 1.00D+00 WtEn= 0.00D+00
 Coeff-Com: -0.241D-08 0.629D-06 0.296D-05-0.113D-04-0.212D-04 0.184D-03
 Coeff-Com:  0.138D-04-0.221D-02 0.338D-02 0.369D-01-0.179D+00 0.232D+00
 Coeff-Com:  0.909D+00
 Coeff:     -0.241D-08 0.629D-06 0.296D-05-0.113D-04-0.212D-04 0.184D-03
 Coeff:      0.138D-04-0.221D-02 0.338D-02 0.369D-01-0.179D+00 0.232D+00
 Coeff:      0.909D+00
 Gap=     0.436 Goal=   None    Shift=    0.000
 Gap=     0.384 Goal=   None    Shift=    0.000
 RMSDP=2.38D-08 MaxDP=1.07D-06 DE=-1.34D-11 OVMax= 2.57D-06

 Cycle  14  Pass 1  IDiag  1:
 E= -435.105151140235     Delta-E=       -0.000000000009 Rises=F Damp=F
 DIIS: error= 6.67D-07 at cycle  14 NSaved=  14.
 NSaved=14 IEnMin=14 EnMin= -435.105151140235     IErMin=14 ErrMin= 6.67D-07
 ErrMax= 6.67D-07  0.00D+00 EMaxC= 1.00D-01 BMatC= 8.17D-12 BMatP= 8.49D-12
 IDIUse=1 WtCom= 1.00D+00 WtEn= 0.00D+00
 Coeff-Com: -0.926D-07 0.135D-05 0.284D-05-0.451D-05-0.383D-04 0.149D-03
 Coeff-Com:  0.142D-03-0.967D-03-0.126D-02 0.101D-01-0.104D-02-0.102D+00
 Coeff-Com: -0.281D-01 0.112D+01
 Coeff:     -0.926D-07 0.135D-05 0.284D-05-0.451D-05-0.383D-04 0.149D-03
 Coeff:      0.142D-03-0.967D-03-0.126D-02 0.101D-01-0.104D-02-0.102D+00
 Coeff:     -0.281D-01 0.112D+01
 Gap=     0.436 Goal=   None    Shift=    0.000
 Gap=     0.384 Goal=   None    Shift=    0.000
 RMSDP=2.68D-08 MaxDP=1.22D-06 DE=-9.21D-12 OVMax= 2.95D-06

 Cycle  15  Pass 1  IDiag  1:
 E= -435.105151140246     Delta-E=       -0.000000000011 Rises=F Damp=F
 DIIS: error= 6.66D-07 at cycle  15 NSaved=  15.
 NSaved=15 IEnMin=15 EnMin= -435.105151140246     IErMin=15 ErrMin= 6.66D-07
 ErrMax= 6.66D-07  0.00D+00 EMaxC= 1.00D-01 BMatC= 8.16D-12 BMatP= 8.17D-12
 IDIUse=1 WtCom= 1.00D+00 WtEn= 0.00D+00
 Coeff-Com:  0.449D-07-0.659D-06-0.158D-05 0.258D-05 0.201D-04-0.823D-04
 Coeff-Com: -0.735D-04 0.589D-03 0.412D-03-0.689D-02 0.115D-01 0.346D-01
 Coeff-Com: -0.518D-01-0.524D+00 0.154D+01
 Coeff:      0.449D-07-0.659D-06-0.158D-05 0.258D-05 0.201D-04-0.823D-04
 Coeff:     -0.735D-04 0.589D-03 0.412D-03-0.689D-02 0.115D-01 0.346D-01
 Coeff:     -0.518D-01-0.524D+00 0.154D+01
 Gap=     0.436 Goal=   None    Shift=    0.000
 Gap=     0.384 Goal=   None    Shift=    0.000
 RMSDP=3.55D-08 MaxDP=1.62D-06 DE=-1.06D-11 OVMax= 3.90D-06

 Cycle  16  Pass 1  IDiag  1:
 E= -435.105151140261     Delta-E=       -0.000000000015 Rises=F Damp=F
 DIIS: error= 6.66D-07 at cycle  16 NSaved=  16.
 NSaved=16 IEnMin=16 EnMin= -435.105151140261     IErMin=16 ErrMin= 6.66D-07
 ErrMax= 6.66D-07  0.00D+00 EMaxC= 1.00D-01 BMatC= 8.15D-12 BMatP= 8.16D-12
 IDIUse=1 WtCom= 1.00D+00 WtEn= 0.00D+00
 Large coefficients: NSaved= 16 BigCof=    0.00 CofMax=   10.00 Det=-2.20D-16
 Inversion failed.  Reducing to 15 matrices.
 Coeff-Com:  0.171D-06 0.789D-06-0.230D-05-0.677D-05 0.514D-04 0.293D-04
 Coeff-Com: -0.569D-03 0.283D-03 0.840D-02-0.288D-01-0.761D-02 0.164D+00
 Coeff-Com:  0.564D+00-0.434D+01 0.464D+01
 Coeff:      0.171D-06 0.789D-06-0.230D-05-0.677D-05 0.514D-04 0.293D-04
 Coeff:     -0.569D-03 0.283D-03 0.840D-02-0.288D-01-0.761D-02 0.164D+00
 Coeff:      0.564D+00-0.434D+01 0.464D+01
 Gap=     0.436 Goal=   None    Shift=    0.000
 Gap=     0.384 Goal=   None    Shift=    0.000
 RMSDP=1.30D-07 MaxDP=5.95D-06 DE=-1.52D-11 OVMax= 1.43D-05

 Cycle  17  Pass 1  IDiag  1:
 E= -435.105151140318     Delta-E=       -0.000000000057 Rises=F Damp=F
 DIIS: error= 6.66D-07 at cycle  17 NSaved=  16.
 NSaved=16 IEnMin=16 EnMin= -435.105151140318     IErMin=16 ErrMin= 6.66D-07
 ErrMax= 6.66D-07  0.00D+00 EMaxC= 1.00D-01 BMatC= 8.14D-12 BMatP= 8.15D-12
 IDIUse=1 WtCom= 1.00D+00 WtEn= 0.00D+00
 Large coefficients: NSaved= 16 BigCof=    0.00 CofMax=   10.00 Det=-4.18D-17
 Inversion failed.  Reducing to 15 matrices.
 Large coefficients: NSaved= 15 BigCof=   33.29 CofMax=   10.00 Det=-4.25D-17
 Inversion failed.  Reducing to 14 matrices.
 Large coefficients: NSaved= 14 BigCof=   27.78 CofMax=   10.00 Det=-6.01D-17
 Inversion failed.  Reducing to 13 matrices.
 Large coefficients: NSaved= 13 BigCof=   27.86 CofMax=   10.00 Det=-6.03D-17
 Inversion failed.  Reducing to 12 matrices.
 Large coefficients: NSaved= 12 BigCof=   27.48 CofMax=   10.00 Det=-6.06D-17
 Inversion failed.  Reducing to 11 matrices.
 Large coefficients: NSaved= 11 BigCof=   27.33 CofMax=   10.00 Det=-6.08D-17
 Inversion failed.  Reducing to 10 matrices.
 Large coefficients: NSaved= 10 BigCof=   26.60 CofMax=   10.00 Det=-6.26D-17
 Inversion failed.  Reducing to  9 matrices.
 Large coefficients: NSaved=  9 BigCof=   26.52 CofMax=   10.00 Det=-6.29D-17
 Inversion failed.  Reducing to  8 matrices.
 Large coefficients: NSaved=  8 BigCof=   23.71 CofMax=   10.00 Det=-6.82D-17
 Inversion failed.  Reducing to  7 matrices.
 Large coefficients: NSaved=  7 BigCof=   23.68 CofMax=   10.00 Det=-6.93D-17
 Inversion failed.  Reducing to  6 matrices.
 Large coefficients: NSaved=  6 BigCof=   20.54 CofMax=   10.00 Det=-7.75D-17
 Inversion failed.  Reducing to  5 matrices.
 Large coefficients: NSaved=  5 BigCof=   20.94 CofMax=   10.00 Det=-7.83D-17
 Inversion failed.  Reducing to  4 matrices.
 Large coefficients: NSaved=  4 BigCof=   18.48 CofMax=   10.00 Det=-9.53D-17
 Inversion failed.  Reducing to  3 matrices.
 Large coefficients: NSaved=  3 BigCof=   17.76 CofMax=   10.00 Det=-1.04D-16
 Inversion failed.  Reducing to  2 matrices.
 Coeff-Com: -0.693D+01 0.793D+01
 Coeff:     -0.693D+01 0.793D+01
 Gap=     0.436 Goal=   None    Shift=    0.000
 Gap=     0.384 Goal=   None    Shift=    0.000
 RMSDP=9.24D-07 MaxDP=4.22D-05 DE=-5.68D-11 OVMax= 1.02D-04

 Cycle  18  Pass 1  IDiag  1:
 E= -435.105151140707     Delta-E=       -0.000000000390 Rises=F Damp=F
 DIIS: error= 6.63D-07 at cycle  18 NSaved=   3.
 NSaved= 3 IEnMin= 3 EnMin= -435.105151140707     IErMin= 3 ErrMin= 6.63D-07
 ErrMax= 6.63D-07  0.00D+00 EMaxC= 1.00D-01 BMatC= 8.09D-12 BMatP= 8.14D-12
 IDIUse=1 WtCom= 1.00D+00 WtEn= 0.00D+00
 Large coefficients: NSaved=  3 BigCof=   24.48 CofMax=   10.00 Det=-1.47D-16
 Inversion failed.  Reducing to  2 matrices.
 Coeff-Com: -0.496D+01 0.596D+01
 Coeff:     -0.496D+01 0.596D+01
 Gap=     0.436 Goal=   None    Shift=    0.000
 Gap=     0.384 Goal=   None    Shift=    0.000
 RMSDP=4.60D-06 MaxDP=2.10D-04 DE=-3.90D-10 OVMax= 5.06D-04

 Cycle  19  Pass 1  IDiag  1:
 E= -435.105151142625     Delta-E=       -0.000000001918 Rises=F Damp=F
 DIIS: error= 6.51D-07 at cycle  19 NSaved=   3.
 NSaved= 3 IEnMin= 3 EnMin= -435.105151142625     IErMin= 3 ErrMin= 6.51D-07
 ErrMax= 6.51D-07  0.00D+00 EMaxC= 1.00D-01 BMatC= 7.85D-12 BMatP= 8.09D-12
 IDIUse=1 WtCom= 1.00D+00 WtEn= 0.00D+00
 Coeff-Com: -0.894D+00-0.705D+00 0.260D+01
 Coeff:     -0.894D+00-0.705D+00 0.260D+01
 Gap=     0.436 Goal=   None    Shift=    0.000
 Gap=     0.384 Goal=   None    Shift=    0.000
 RMSDP=8.20D-06 MaxDP=3.75D-04 DE=-1.92D-09 OVMax= 9.02D-04

 Cycle  20  Pass 1  IDiag  1:
 E= -435.105151145957     Delta-E=       -0.000000003332 Rises=F Damp=F
 DIIS: error= 6.28D-07 at cycle  20 NSaved=   4.
 NSaved= 4 IEnMin= 4 EnMin= -435.105151145957     IErMin= 4 ErrMin= 6.28D-07
 ErrMax= 6.28D-07  0.00D+00 EMaxC= 1.00D-01 BMatC= 7.58D-12 BMatP= 7.85D-12
 IDIUse=1 WtCom= 1.00D+00 WtEn= 0.00D+00
 Coeff-Com:  0.285D+01-0.474D+01 0.174D+01 0.116D+01
 Coeff:      0.285D+01-0.474D+01 0.174D+01 0.116D+01
 Gap=     0.436 Goal=   None    Shift=    0.000
 Gap=     0.384 Goal=   None    Shift=    0.000
 RMSDP=7.41D-06 MaxDP=3.38D-04 DE=-3.33D-09 OVMax= 8.14D-04

 Cycle  21  Pass 1  IDiag  1:
 E= -435.105151148864     Delta-E=       -0.000000002907 Rises=F Damp=F
 DIIS: error= 6.08D-07 at cycle  21 NSaved=   5.
 NSaved= 5 IEnMin= 5 EnMin= -435.105151148864     IErMin= 5 ErrMin= 6.08D-07
 ErrMax= 6.08D-07  0.00D+00 EMaxC= 1.00D-01 BMatC= 7.51D-12 BMatP= 7.58D-12
 IDIUse=1 WtCom= 1.00D+00 WtEn= 0.00D+00
 Large coefficients: NSaved=  5 BigCof=   10.83 CofMax=   10.00 Det=-2.13D-16
 Inversion failed.  Reducing to  4 matrices.
 Coeff-Com: -0.109D+01 0.125D+01 0.377D+00 0.462D+00
 Coeff:     -0.109D+01 0.125D+01 0.377D+00 0.462D+00
 Gap=     0.436 Goal=   None    Shift=    0.000
 Gap=     0.384 Goal=   None    Shift=    0.000
 RMSDP=2.53D-07 MaxDP=1.16D-05 DE=-2.91D-09 OVMax= 2.79D-05

 Cycle  22  Pass 1  IDiag  1:
 E= -435.105151148768     Delta-E=        0.000000000096 Rises=F Damp=F
 DIIS: error= 6.08D-07 at cycle  22 NSaved=   5.
 NSaved= 5 IEnMin= 4 EnMin= -435.105151148864     IErMin= 4 ErrMin= 6.08D-07
 ErrMax= 6.08D-07  0.00D+00 EMaxC= 1.00D-01 BMatC= 7.23D-12 BMatP= 7.51D-12
 IDIUse=1 WtCom= 1.00D+00 WtEn= 0.00D+00
 Large coefficients: NSaved=  5 BigCof=   24.28 CofMax=   10.00 Det=-1.11D-14
 Inversion failed.  Reducing to  4 matrices.
 Large coefficients: NSaved=  4 BigCof=   24.34 CofMax=   10.00 Det=-1.15D-14
 Inversion failed.  Reducing to  3 matrices.
 Large coefficients: NSaved=  3 BigCof=   10.32 CofMax=   10.00 Det=-3.94D-14
 Inversion failed.  Reducing to  2 matrices.
 Coeff-Com: -0.242D+01 0.342D+01
 Coeff:     -0.242D+01 0.342D+01
 Gap=     0.436 Goal=   None    Shift=    0.000
 Gap=     0.384 Goal=   None    Shift=    0.000
 RMSDP=5.94D-07 MaxDP=2.71D-05 DE= 9.58D-11 OVMax= 6.53D-05

 Cycle  23  Pass 1  IDiag  1:
 E= -435.105151148537     Delta-E=        0.000000000231 Rises=F Damp=F
 DIIS: error= 6.10D-07 at cycle  23 NSaved=   3.
 NSaved= 3 IEnMin= 1 EnMin= -435.105151148864     IErMin= 1 ErrMin= 6.08D-07
 ErrMax= 6.10D-07  0.00D+00 EMaxC= 1.00D-01 BMatC= 6.86D-12 BMatP= 7.23D-12
 IDIUse=1 WtCom= 1.00D+00 WtEn= 0.00D+00
 Coeff-Com:  0.852D+00-0.125D+01 0.139D+01
 Coeff:      0.852D+00-0.125D+01 0.139D+01
 Gap=     0.436 Goal=   None    Shift=    0.000
 Gap=     0.384 Goal=   None    Shift=    0.000
 RMSDP=2.17D-09 MaxDP=6.70D-08 DE= 2.31D-10 OVMax= 1.63D-07

 SCF Done:  E(UHF) =  -435.105151149     A.U. after   23 cycles
            NFock= 23  Conv=0.22D-08     -V/T= 2.0026
 <Sx>= 0.0000 <Sy>= 0.0000 <Sz>= 0.5000 <S**2>= 0.7527 S= 0.5013
 <L.S>= 0.000000000000E+00
 KE= 4.339721324792D+02 PE=-1.313214096151D+03 EE= 3.011264132112D+02
 Annihilation of the first spin contaminant:
 S**2 before annihilation     0.7527,   after     0.7500
 Leave Link  502 at Sat Mar  4 13:43:11 2017, MaxMem=   655360000 cpu:         3.0
 (Enter /mnt/software/gaussian/g09/l801.exe)
 Range of M.O.s used for correlation:     1    75
 NBasis=    75 NAE=    21 NBE=    20 NFC=     0 NFV=     0
 NROrb=     75 NOA=    21 NOB=    20 NVA=    54 NVB=    55
 Leave Link  801 at Sat Mar  4 13:43:11 2017, MaxMem=   655360000 cpu:         0.1
 (Enter /mnt/software/gaussian/g09/l1002.exe)
 Minotr:  UHF open shell wavefunction.
          Direct CPHF calculation.
          Differentiating once with respect to electric field.
                with respect to dipole field.
          Electric field/nuclear overlap derivatives assumed to be zero.
          Requested convergence is 1.0D-08 RMS, and 1.0D-07 maximum.
          Secondary convergence is 1.0D-12 RMS, and 1.0D-12 maximum.
          NewPWx=F KeepS1=T KeepF1=T KeepIn=T MapXYZ=F SortEE=F KeepMc=T.
          MDV=     655359806 using IRadAn=       2.
 Keep R1 and R2 ints in memory in canonical form, NReq=8971662.
 FoFCou: FMM=F IPFlag=           0 FMFlag=           0 FMFlg1=           0
         NFxFlg=           0 DoJE=F BraDBF=F KetDBF=F FulRan=T
         wScrn=  0.000000 ICntrl=     600 IOpCl=  0 I1Cent=           0 NGrid=           0
         NMat0=    1 NMatS0=   2850 NMatT0=    0 NMatD0=    1 NMtDS0=    0 NMtDT0=    0
 Symmetry not used in FoFCou.
          Solving linear equations simultaneously, MaxMat=       0.
          There are     3 degrees of freedom in the 1st order CPHF.  IDoFFX=0 NUNeed=     3.
      3 vectors produced by pass  0 Test12= 7.45D-14 3.33D-08 XBig12= 4.49D+00 6.99D-01.
 AX will form     3 AO Fock derivatives at one time.
      3 vectors produced by pass  1 Test12= 7.45D-14 3.33D-08 XBig12= 3.12D-01 1.02D-01.
      3 vectors produced by pass  2 Test12= 7.45D-14 3.33D-08 XBig12= 4.72D-02 7.92D-02.
      3 vectors produced by pass  3 Test12= 7.45D-14 3.33D-08 XBig12= 2.36D-03 1.51D-02.
      3 vectors produced by pass  4 Test12= 7.45D-14 3.33D-08 XBig12= 5.07D-05 1.37D-03.
      3 vectors produced by pass  5 Test12= 7.45D-14 3.33D-08 XBig12= 1.48D-06 2.45D-04.
      3 vectors produced by pass  6 Test12= 7.45D-14 3.33D-08 XBig12= 5.22D-08 9.05D-05.
      3 vectors produced by pass  7 Test12= 7.45D-14 3.33D-08 XBig12= 2.25D-09 2.04D-05.
      3 vectors produced by pass  8 Test12= 7.45D-14 3.33D-08 XBig12= 7.11D-11 3.53D-06.
      3 vectors produced by pass  9 Test12= 7.45D-14 3.33D-08 XBig12= 4.72D-12 9.64D-07.
      3 vectors produced by pass 10 Test12= 7.45D-14 3.33D-08 XBig12= 4.25D-13 1.78D-07.
 InvSVY:  IOpt=1 It=  1 EMax= 1.33D-15
 Solved reduced A of dimension    33 with     3 vectors.
 End of Minotr F.D. properties file   721 does not exist.
 End of Minotr F.D. properties file   722 does not exist.
 End of Minotr F.D. properties file   788 does not exist.
 Leave Link 1002 at Sat Mar  4 13:43:11 2017, MaxMem=   655360000 cpu:         2.9
 (Enter /mnt/software/gaussian/g09/l1101.exe)
 Using compressed storage, NAtomX=     5.
 Will process      6 centers per pass.
 Leave Link 1101 at Sat Mar  4 13:43:11 2017, MaxMem=   655360000 cpu:         0.7
 (Enter /mnt/software/gaussian/g09/l1102.exe)
 Symmetrizing basis deriv contribution to polar:
 IMax=3 JMax=2 DiffMx= 0.00D+00
 Leave Link 1102 at Sat Mar  4 13:43:11 2017, MaxMem=   655360000 cpu:         0.1
 (Enter /mnt/software/gaussian/g09/l1110.exe)
 Forming Gx(P) for the SCF density, NAtomX=     5.
 Integral derivatives from FoFJK, PRISM(SPDF).
 Do as many integral derivatives as possible in FoFJK.
 G2DrvN: MDV=     655359856.
 G2DrvN: will do     6 centers at a time, making    1 passes.
 PxScal for G2LodP:  IOpCl= 1 ISclPx=1 IMOff=     1 NMtTot=     4 NTT=    2850 ScalPx= 1.07D+00
 Calling FoFCou, ICntrl=  3107 FMM=F I1Cent=   0 AccDes= 0.00D+00.
 FoFJK:  IHMeth= 1 ICntrl=    3107 DoSepK=F KAlg= 0 I1Cent=   0 FoldK=F
 IRaf=         0 NMat=   1 IRICut=       1 DoRegI=T DoRafI=F ISym2E= 0.
 FoFCou: FMM=F IPFlag=           0 FMFlag=      100000 FMFlg1=           0
         NFxFlg=           0 DoJE=F BraDBF=F KetDBF=F FulRan=T
         wScrn=  0.000000 ICntrl=    3107 IOpCl=  1 I1Cent=           0 NGrid=           0
         NMat0=    1 NMatS0=      1 NMatT0=    0 NMatD0=    4 NMtDS0=    3 NMtDT0=    0
 Symmetry not used in FoFCou.
 End of G2Drv F.D. properties file   721 does not exist.
 End of G2Drv F.D. properties file   722 does not exist.
 End of G2Drv F.D. properties file   788 does not exist.
 Leave Link 1110 at Sat Mar  4 13:43:12 2017, MaxMem=   655360000 cpu:         1.9
 (Enter /mnt/software/gaussian/g09/l1002.exe)
 Minotr:  UHF open shell wavefunction.
          IDoAtm=11111
          Direct CPHF calculation.
          Differentiating once with respect to electric field.
                with respect to dipole field.
          Differentiating once with respect to nuclear coordinates.
          Requested convergence is 1.0D-08 RMS, and 1.0D-07 maximum.
          Secondary convergence is 1.0D-12 RMS, and 1.0D-12 maximum.
          NewPWx=T KeepS1=F KeepF1=F KeepIn=T MapXYZ=F SortEE=F KeepMc=T.
          MDV=     655359796 using IRadAn=       2.
 Keep R1 and R2 ints in memory in canonical form, NReq=8971777.
 FoFCou: FMM=F IPFlag=           0 FMFlag=           0 FMFlg1=           0
         NFxFlg=           0 DoJE=F BraDBF=F KetDBF=F FulRan=T
         wScrn=  0.000000 ICntrl=     600 IOpCl=  0 I1Cent=           0 NGrid=           0
         NMat0=    1 NMatS0=   2850 NMatT0=    0 NMatD0=    1 NMtDS0=    0 NMtDT0=    0
 Symmetry not used in FoFCou.
          Solving linear equations simultaneously, MaxMat=       0.
          There are    18 degrees of freedom in the 1st order CPHF.  IDoFFX=5 NUNeed=    18.
 Will reuse    3 saved solutions.
     12 vectors produced by pass  0 Test12= 1.24D-14 5.56D-09 XBig12= 1.90D-01 8.30D-02.
 AX will form    12 AO Fock derivatives at one time.
     12 vectors produced by pass  1 Test12= 1.24D-14 5.56D-09 XBig12= 1.58D-02 5.48D-02.
     12 vectors produced by pass  2 Test12= 1.24D-14 5.56D-09 XBig12= 2.30D-03 1.06D-02.
     12 vectors produced by pass  3 Test12= 1.24D-14 5.56D-09 XBig12= 5.17D-05 2.00D-03.
     12 vectors produced by pass  4 Test12= 1.24D-14 5.56D-09 XBig12= 6.45D-07 1.75D-04.
      9 vectors produced by pass  5 Test12= 1.24D-14 5.56D-09 XBig12= 1.63D-08 1.53D-05.
      9 vectors produced by pass  6 Test12= 1.24D-14 5.56D-09 XBig12= 2.78D-10 3.29D-06.
      7 vectors produced by pass  7 Test12= 1.24D-14 5.56D-09 XBig12= 2.10D-12 2.32D-07.
      2 vectors produced by pass  8 Test12= 1.24D-14 5.56D-09 XBig12= 1.50D-14 2.57D-08.
 InvSVY:  IOpt=1 It=  1 EMax= 3.47D-14
 Solved reduced A of dimension    87 with    12 vectors.
 FullF1:  Do perturbations    1 to     3.
 Isotropic polarizability for W=    0.000000       11.85 Bohr**3.
 FullF1:  Do perturbations    1 to     6.
 End of Minotr F.D. properties file   721 does not exist.
 End of Minotr F.D. properties file   722 does not exist.
 End of Minotr F.D. properties file   788 does not exist.
 Leave Link 1002 at Sat Mar  4 13:43:12 2017, MaxMem=   655360000 cpu:         4.5
 (Enter /mnt/software/gaussian/g09/l601.exe)
 Copying SCF densities to generalized density rwf, IOpCl= 1 IROHF=0.

 **********************************************************************

            Population analysis using the SCF density.

 **********************************************************************

 Orbital symmetries:
 Alpha Orbitals:
       Occupied  (A) (A) (A) (A) (A) (A) (A) (A) (A) (A) (A) (A)
                 (A) (A) (A) (A) (A) (A) (A) (A) (A)
       Virtual   (A) (A) (A) (A) (A) (A) (A) (A) (A) (A) (A) (A)
                 (A) (A) (A) (A) (A) (A) (A) (A) (A) (A) (A) (A)
                 (A) (A) (A) (A) (A) (A) (A) (A) (A) (A) (A) (A)
                 (A) (A) (A) (A) (A) (A) (A) (A) (A) (A) (A) (A)
                 (A) (A) (A) (A) (A) (A)
 Beta  Orbitals:
       Occupied  (A) (A) (A) (A) (A) (A) (A) (A) (A) (A) (A) (A)
                 (A) (A) (A) (A) (A) (A) (A) (A)
       Virtual   (A) (A) (A) (A) (A) (A) (A) (A) (A) (A) (A) (A)
                 (A) (A) (A) (A) (A) (A) (A) (A) (A) (A) (A) (A)
                 (A) (A) (A) (A) (A) (A) (A) (A) (A) (A) (A) (A)
                 (A) (A) (A) (A) (A) (A) (A) (A) (A) (A) (A) (A)
                 (A) (A) (A) (A) (A) (A) (A)
 The electronic state is 2-A.
 Alpha  occ. eigenvalues --  -26.75757 -26.74315 -26.72625 -26.44350 -11.96835
 Alpha  occ. eigenvalues --   -2.16408  -2.05594  -2.02036  -1.69731  -1.32492
 Alpha  occ. eigenvalues --   -1.22834  -1.22135  -1.17619  -1.06925  -1.05856
 Alpha  occ. eigenvalues --   -1.03573  -1.01883  -1.00830  -0.86555  -0.75768
 Alpha  occ. eigenvalues --   -0.75763
 Alpha virt. eigenvalues --   -0.32166   0.09930   0.12676   0.14602   0.32256
 Alpha virt. eigenvalues --    0.36209   0.39132   0.42075   1.00247   1.01743
 Alpha virt. eigenvalues --    1.02557   1.03750   1.05082   1.05409   1.26470
 Alpha virt. eigenvalues --    1.27539   1.29051   1.30658   1.32263   1.32746
 Alpha virt. eigenvalues --    1.33511   1.39093   1.39105   1.42126   1.60024
 Alpha virt. eigenvalues --    1.61266   1.74046   1.74899   1.78152   1.78288
 Alpha virt. eigenvalues --    1.81793   1.82383   1.99810   2.01533   2.01540
 Alpha virt. eigenvalues --    2.03017   2.06170   2.06950   2.06950   2.07662
 Alpha virt. eigenvalues --    2.12818   2.43494   2.50958   2.55026   2.81164
 Alpha virt. eigenvalues --    2.82775   3.10524   3.12985   3.16585   3.65614
 Alpha virt. eigenvalues --    4.19359   4.35419   4.43469   4.84250
  Beta  occ. eigenvalues --  -26.75757 -26.74315 -26.72625 -26.39575 -11.96835
  Beta  occ. eigenvalues --   -2.16408  -2.05594  -2.02036  -1.50540  -1.32492
  Beta  occ. eigenvalues --   -1.22834  -1.22135  -1.17619  -1.06925  -1.05856
  Beta  occ. eigenvalues --   -1.03573  -1.01883  -1.00830  -0.70603  -0.70598
  Beta virt. eigenvalues --   -0.32166   0.05130   0.09930   0.12676   0.14602
  Beta virt. eigenvalues --    0.32256   0.36209   0.39132   0.42075   1.00247
  Beta virt. eigenvalues --    1.01743   1.03750   1.05082   1.05409   1.05787
  Beta virt. eigenvalues --    1.26470   1.27539   1.29051   1.30658   1.32746
  Beta virt. eigenvalues --    1.33511   1.41619   1.41631   1.42126   1.54613
  Beta virt. eigenvalues --    1.60024   1.61266   1.74046   1.74899   1.78152
  Beta virt. eigenvalues --    1.78288   1.81793   1.82383   2.03017   2.06170
  Beta virt. eigenvalues --    2.07623   2.07623   2.07662   2.10414   2.10421
  Beta virt. eigenvalues --    2.11520   2.12818   2.43494   2.50958   2.55026
  Beta virt. eigenvalues --    2.81164   2.82775   3.10524   3.12985   3.16585
  Beta virt. eigenvalues --    3.69913   4.19359   4.35419   4.43469   4.84250
          Condensed to atoms (all electrons):
               1          2          3          4          5
     1  C    3.540424   0.394706   0.377880   0.000000   0.413142
     2  F    0.394706   8.778564  -0.042984   0.000000  -0.037886
     3  F    0.377880  -0.042984   8.833817   0.000000  -0.042841
     4  F    0.000000   0.000000   0.000000   9.000000   0.000000
     5  F    0.413142  -0.037886  -0.042841   0.000000   8.723159
          Atomic-Atomic Spin Densities.
               1          2          3          4          5
     1  C    0.000000   0.000000   0.000000   0.000000   0.000000
     2  F    0.000000   0.000000   0.000000   0.000000   0.000000
     3  F    0.000000   0.000000   0.000000   0.000000   0.000000
     4  F    0.000000   0.000000   0.000000   1.000000   0.000000
     5  F    0.000000   0.000000   0.000000   0.000000   0.000000
 Mulliken charges and spin densities:
               1          2
     1  C    1.273847   0.000000
     2  F   -0.092400   0.000000
     3  F   -0.125872   0.000000
     4  F    0.000000   1.000000
     5  F   -0.055575   0.000000
 Sum of Mulliken charges =   1.00000   1.00000
 Mulliken charges and spin densities with hydrogens summed into heavy atoms:
               1          2
     1  C    1.273847   0.000000
     2  F   -0.092400   0.000000
     3  F   -0.125872   0.000000
     4  F    0.000000   1.000000
     5  F   -0.055575   0.000000
 APT charges:
               1
     1  C    1.970853
     2  F   -0.322439
     3  F   -0.316220
     4  F    0.000002
     5  F   -0.332196
 Sum of APT charges =   1.00000
 APT charges with hydrogens summed into heavy atoms:
               1
     1  C    1.970853
     2  F   -0.322439
     3  F   -0.316220
     4  F    0.000002
     5  F   -0.332196
 Electronic spatial extent (au):  <R**2>=           4320.2177
 Charge=              1.0000 electrons
 Dipole moment (field-independent basis, Debye):
    X=            -11.5942    Y=             -0.2762    Z=              0.8899  Tot=             11.6316
 Quadrupole moment (field-independent basis, Debye-Ang):
   XX=              7.5433   YY=            -21.3067   ZZ=            -20.2305
   XY=              0.6923   XZ=             -1.9270   YZ=             -0.3210
 Traceless Quadrupole moment (field-independent basis, Debye-Ang):
   XX=             18.8746   YY=             -9.9754   ZZ=             -8.8992
   XY=              0.6923   XZ=             -1.9270   YZ=             -0.3210
 Octapole moment (field-independent basis, Debye-Ang**2):
  XXX=            -76.8247  YYY=              0.2409  ZZZ=             -0.0250  XYY=             -0.5955
  XXY=             -2.1935  XXZ=              5.3483  XZZ=              3.8790  YZZ=             -0.5502
  YYZ=             -0.7054  XYZ=             -2.9411
 Hexadecapole moment (field-independent basis, Debye-Ang**3):
 XXXX=          -3413.7488 YYYY=            -66.3172 ZZZZ=            -57.7446 XXXY=              2.0776
 XXXZ=             -5.3802 YYYX=             -1.1290 YYYZ=             -0.3365 ZZZX=              0.3264
 ZZZY=              0.3662 XXYY=           -602.7575 XXZZ=           -537.9572 YYZZ=            -20.2527
 XXYZ=            -33.1190 YYXZ=              1.9064 ZZXY=              1.2143
 N-N= 1.430103993121D+02 E-N=-1.313214095941D+03  KE= 4.339721324792D+02
  Exact polarizability:  10.004  -0.174  12.946  -1.101  -0.112  12.608
 Approx polarizability:  10.078  -0.184  11.944  -0.669  -0.104  11.896
                          Isotropic Fermi Contact Couplings
        Atom                 a.u.       MegaHertz       Gauss      10(-4) cm-1
     1  C(13)              0.00000       0.00000       0.00000       0.00000
     2  F(19)              0.00000       0.00000       0.00000       0.00000
     3  F(19)              0.00000       0.00000       0.00000       0.00000
     4  F(19)              0.06932     291.66017     104.07160      97.28736
     5  F(19)              0.00000       0.00000       0.00000       0.00000
 --------------------------------------------------------
       Center         ----  Spin Dipole Couplings  ----
                      3XX-RR        3YY-RR        3ZZ-RR
 --------------------------------------------------------
     1   Atom        0.000149     -0.000075     -0.000074
     2   Atom        0.000146     -0.000073     -0.000073
     3   Atom        0.000138     -0.000068     -0.000070
     4   Atom       -2.899751     -1.513436      4.413187
     5   Atom        0.000123     -0.000062     -0.000061
 --------------------------------------------------------
                        XY            XZ            YZ
 --------------------------------------------------------
     1   Atom        0.000000     -0.000001      0.000000
     2   Atom        0.000015      0.000015      0.000001
     3   Atom       -0.000019      0.000006     -0.000001
     4   Atom       -0.129276      0.295883     -3.200378
     5   Atom        0.000004     -0.000013      0.000000
 --------------------------------------------------------


 ---------------------------------------------------------------------------------
              Anisotropic Spin Dipole Couplings in Principal Axis System
 ---------------------------------------------------------------------------------

       Atom             a.u.   MegaHertz   Gauss  10(-4) cm-1        Axes

              Baa    -0.0001    -0.010    -0.004    -0.003  0.0001  0.9164  0.4004
     1 C(13)  Bbb    -0.0001    -0.010    -0.004    -0.003  0.0052 -0.4004  0.9163
              Bcc     0.0001     0.020     0.007     0.007  1.0000  0.0020 -0.0048
 
              Baa    -0.0001    -0.037    -0.013    -0.012 -0.0900  0.9113  0.4018
     2 F(19)  Bbb    -0.0001    -0.037    -0.013    -0.012 -0.0359 -0.4061  0.9131
              Bcc     0.0001     0.074     0.026     0.025  0.9953  0.0677  0.0692
 
              Baa    -0.0001    -0.035    -0.013    -0.012  0.0702  0.9151  0.3970
     3 F(19)  Bbb    -0.0001    -0.035    -0.012    -0.012 -0.0634 -0.3931  0.9173
              Bcc     0.0001     0.070     0.025     0.023  0.9955 -0.0896  0.0304
 
              Baa    -2.9117 -1462.347  -521.802  -487.787  0.0005  0.9164  0.4004
     4 F(19)  Bbb    -2.9117 -1462.332  -521.796  -487.781  0.9993  0.0144 -0.0341
              Bcc     5.8234  2924.679  1043.598   975.568  0.0370 -0.4001  0.9157
 
              Baa    -0.0001    -0.031    -0.011    -0.010  0.0083  0.9164  0.4001
     5 F(19)  Bbb    -0.0001    -0.031    -0.011    -0.010  0.0748 -0.3995  0.9137
              Bcc     0.0001     0.062     0.022     0.021  0.9972  0.0223 -0.0719
 

 ---------------------------------------------------------------------------------

 No NMR shielding tensors so no spin-rotation constants.
 Leave Link  601 at Sat Mar  4 13:43:13 2017, MaxMem=   655360000 cpu:         1.2
 (Enter /mnt/software/gaussian/g09/l701.exe)
 Compute integral second derivatives.
 ... and contract with generalized density number  0.
 Entering OneElI...
 Calculate overlap and kinetic energy integrals
    NBasis =  75  MinDer = 2  MaxDer = 2
 Requested accuracy = 0.1000D-12
 PrsmSu:  NPrtUS=   6 ThrOK=T IAlg=1 NPAlg=1 LenDen=           0.
 Prism:   IPart=     0 DynPar=F LinDyn=F Incr=           1.
 PRISM was handed   109212891 working-precision words and   147 shell-pairs
 PRISM was handed   109212891 working-precision words and   147 shell-pairs
 PRISM was handed   109212891 working-precision words and   147 shell-pairs
 PRISM was handed   109212891 working-precision words and   147 shell-pairs
 PRISM was handed   109212891 working-precision words and   147 shell-pairs
 PRISM was handed   109212891 working-precision words and   147 shell-pairs
 IPart=  3 NShTot=          23 NBatch=          11 AvBLen=         2.1
 IPart=  1 NShTot=          29 NBatch=          15 AvBLen=         1.9
 IPart=  2 NShTot=          27 NBatch=          15 AvBLen=         1.8
 IPart=  0 NShTot=          29 NBatch=          15 AvBLen=         1.9
 IPart=  5 NShTot=          16 NBatch=          10 AvBLen=         1.6
 IPart=  4 NShTot=          23 NBatch=          11 AvBLen=         2.1
 PrSmSu:  NxtVal=              7.
 Entering OneElI...
 Calculate potential energy integrals
    NBasis =  75  MinDer = 2  MaxDer = 2
 Requested accuracy = 0.1000D-12
 PrsmSu:  NPrtUS=   6 ThrOK=T IAlg=1 NPAlg=1 LenDen=           0.
 Prism:   IPart=     0 DynPar=F LinDyn=F Incr=           1.
 PRISM was handed   109214644 working-precision words and   143 shell-pairs
 PRISM was handed   109214644 working-precision words and   143 shell-pairs
 PRISM was handed   109214644 working-precision words and   143 shell-pairs
 PRISM was handed   109214644 working-precision words and   143 shell-pairs
 PRISM was handed   109214644 working-precision words and   143 shell-pairs
 PRISM was handed   109214644 working-precision words and   143 shell-pairs
 IPart=  5 NShTot=          70 NBatch=          14 AvBLen=         5.0
 IPart=  1 NShTot=         130 NBatch=          26 AvBLen=         5.0
 IPart=  2 NShTot=         125 NBatch=          25 AvBLen=         5.0
 IPart=  3 NShTot=         120 NBatch=          24 AvBLen=         5.0
 IPart=  4 NShTot=         120 NBatch=          24 AvBLen=         5.0
 IPart=  0 NShTot=         150 NBatch=          30 AvBLen=         5.0
 PrSmSu:  NxtVal=              7.
 Polarizability after L701:
                1             2             3 
      1  0.100045D+02
      2 -0.174063D+00  0.129457D+02
      3 -0.110120D+01 -0.112028D+00  0.126077D+02
 Dipole Derivatives after L701:
                 1             2             3             4             5 
      1   0.142958D+01 -0.154652D-02 -0.420803D+00 -0.858286D-01  0.101436D+00
      2   0.146508D-01  0.229279D+01  0.698297D-02 -0.506653D-01 -0.445933D+00
      3  -0.436242D+00 -0.352600D-04  0.219019D+01  0.101735D-01 -0.201791D+00
                 6             7             8             9            10 
      1   0.164632D+00 -0.105879D+00 -0.560413D-01  0.672418D-01 -0.245916D-03
      2  -0.265944D+00  0.140856D+00 -0.597271D+00  0.168751D+00 -0.130866D-05
      3  -0.435557D+00  0.113983D-01  0.909763D-01 -0.245510D+00  0.416655D-05
                11            12            13            14            15 
      1  -0.169464D-05  0.411317D-05 -0.237628D+00 -0.438467D-01  0.188925D+00
      2   0.123537D-03 -0.260038D-05 -0.104841D+00 -0.249710D+00  0.902124D-01
      3  -0.230244D-05  0.127599D-03  0.414666D+00  0.110852D+00 -0.509249D+00
 Hessian after L701:
                1             2             3             4             5 
      1  0.305238D+02
      2  0.211069D+00  0.179560D+02
      3  0.650106D+01 -0.138716D+00  0.186114D+02
      4 -0.127762D+02  0.211396D+00  0.799553D-02  0.140101D+02
      5  0.635619D+00 -0.591848D+01  0.761048D+01  0.210136D+00  0.503421D+01
      6  0.491691D+00  0.739741D+01 -0.352588D+01  0.807650D+00 -0.875066D+01
      7 -0.110394D+02 -0.267889D+01  0.943130D+00 -0.758107D+00 -0.367609D+00
      8 -0.326701D+01  0.566299D+00 -0.508705D+01 -0.160545D+00  0.158946D+01
      9  0.112178D+01 -0.482884D+01 -0.935536D+01 -0.641365D-01  0.365533D+00
     10 -0.639663D-03 -0.255762D-05 -0.345626D-02  0.126417D-01  0.511614D-02
     11  0.159916D-04 -0.374956D-02 -0.206201D-04  0.123256D-02 -0.577113D-02
     12  0.227028D-03 -0.130366D-04 -0.364527D-02  0.124173D-02  0.204719D-03
     13 -0.670752D+01  0.225643D+01 -0.744873D+01 -0.488368D+00 -0.483261D+00
     14  0.242031D+01 -0.126001D+02 -0.238470D+01 -0.262219D+00 -0.699426D+00
     15 -0.811476D+01 -0.242984D+01 -0.572656D+01 -0.752751D+00  0.774441D+00
                6             7             8             9            10 
      6  0.298621D+01
      7 -0.167486D+00  0.125025D+02
      8  0.821725D+00  0.266063D+01 -0.263083D+01
      9 -0.809425D+00 -0.501506D+00  0.559946D+01  0.985551D+01
     10  0.628951D-02  0.131159D-01 -0.661086D-02  0.291513D-02 -0.396838D-01
     11  0.286108D-03 -0.161285D-02 -0.530673D-02 -0.160517D-03 -0.395446D-04
     12 -0.579754D-02  0.515134D-03 -0.877889D-04 -0.568560D-02 -0.655511D-03
     13 -0.113814D+01 -0.718145D+00  0.773539D+00 -0.559055D+00  0.145660D-01
     14  0.531232D+00  0.387484D+00  0.480374D+00 -0.113599D+01  0.153683D-02
     15  0.135489D+01 -0.274654D+00 -0.133406D+01  0.314953D+00 -0.509286D-02
               11            12            13            14            15 
     11  0.198162D-01
     12 -0.155501D-04  0.198675D-01
     13  0.403849D-03 -0.132839D-02  0.789946D+01
     14 -0.498880D-02 -0.883432D-04 -0.254711D+01  0.128241D+02
     15 -0.894205D-04 -0.473909D-02  0.914726D+01  0.298955D+01  0.406146D+01
 Leave Link  701 at Sat Mar  4 13:43:13 2017, MaxMem=   655360000 cpu:         0.9
 (Enter /mnt/software/gaussian/g09/l702.exe)
 L702 exits ... SP integral derivatives will be done elsewhere.
 Leave Link  702 at Sat Mar  4 13:43:13 2017, MaxMem=   655360000 cpu:         0.1
 (Enter /mnt/software/gaussian/g09/l703.exe)
 Compute integral second derivatives, UseDBF=F ICtDFT=           0.
 Integral derivatives from FoFJK, PRISM(SPDF).
 ICntrl=    100127.
 Calling FoFJK, ICntrl=    100127 FMM=F ISym2X=0 I1Cent= 0 IOpClX= 1 NMat=1 NMatS=1 NMatT=0.
 FoFJK:  IHMeth= 1 ICntrl=  100127 DoSepK=F KAlg= 0 I1Cent=   0 FoldK=F
 IRaf=         0 NMat=   1 IRICut=       1 DoRegI=T DoRafI=F ISym2E= 0.
 FoFCou: FMM=F IPFlag=           0 FMFlag=      100000 FMFlg1=         800
         NFxFlg=           0 DoJE=F BraDBF=F KetDBF=F FulRan=T
         wScrn=  0.000000 ICntrl=  100127 IOpCl=  1 I1Cent=           0 NGrid=           0
         NMat0=    1 NMatS0=      1 NMatT0=    0 NMatD0=    1 NMtDS0=    0 NMtDT0=    0
 Symmetry not used in FoFCou.
 FoFCou:  KetSym=F NOpSet=  1 NOpAb=1 NOp=  1.
 FoFCou:  CnvScl= 1.00D+00 Thresh= 1.00D-10 IAcrcy=      10.
 PrismS was handed   655323644 working-precision words and   143 shell-pairs
 FoFCou: LinMIO=F DoNuc=F BraDBF=F KetDBF=F HaveP=T PDBF=F HaveZ=T HaveW=F
         NIJTC =       6 NIJTAt=       0 NIJTCD=       0 NIJTT =       6
         IJTBeg=       1 IJTEnd=       6 KLTBeg=       1 KLTEnd=       6
         IPTBeg=       1 IPTEnd=       6 IPTBCv=       1 IPTECv=       6
         IZTBeg=       1 IZTEnd=       6 IZTBCv=       1 IZTECv=       6
         IWTBeg=       7 IWTEnd=       6 IWTBCv=       7 IWTECv=       6
         INTBeg=       1 INTEnd=       0 IFTBCv=       1 IFTECv=       6
 NCel replicated for PrismC:     1
 CoulSu:  IncDef=  1024 NBBP=          10296 NTPThr=   100 NPartT=    6 Incr=          17 LDynOK=F.
 CoulSu:  NPrtUS=   6 ThrOK=T IAlg=1 NPAlg=1 LenDen=           0 LWGrdD=           0 DoCopy=F.
 Enter PrismC: JobTyp=22 DoJE=F Cont=F.
 PrismC:  IPart=     0 DynPar=F LinDyn=F Incr=          17 UseFst=F UseS4=T IGathr=2.
 PrismC was handed   109213302 working-precision words and   143 shell-pairs
 Enter PrismC: JobTyp=22 DoJE=F Cont=F.
 PrismC was handed   109213302 working-precision words and   143 shell-pairs
 Enter PrismC: JobTyp=22 DoJE=F Cont=F.
 PrismC was handed   109213302 working-precision words and   143 shell-pairs
 Enter PrismC: JobTyp=22 DoJE=F Cont=F.
 Enter PrismC: JobTyp=22 DoJE=F Cont=F.
 PrismC was handed   109213302 working-precision words and   143 shell-pairs
 PrismC was handed   109213302 working-precision words and   143 shell-pairs
 Enter PrismC: JobTyp=22 DoJE=F Cont=F.
 PrismC was handed   109213302 working-precision words and   143 shell-pairs
 IPart=  4 NShTot=        1673 NShNF=        1673 NShFF=           0 NBatch=         174 AvBLen=         9.6
 IPart=  5 NShTot=        1661 NShNF=        1661 NShFF=           0 NBatch=         169 AvBLen=         9.8
 IPart=  2 NShTot=        1671 NShNF=        1671 NShFF=           0 NBatch=         178 AvBLen=         9.4
 IPart=  0 NShTot=        1794 NShNF=        1794 NShFF=           0 NBatch=         184 AvBLen=         9.8
 IPart=  1 NShTot=        1654 NShNF=        1654 NShFF=           0 NBatch=         178 AvBLen=         9.3
 IPart=  3 NShTot=        1668 NShNF=        1668 NShFF=           0 NBatch=         174 AvBLen=         9.6
 CoulSu:  NxtVal=            103.
 Polarizability after L703:
                1             2             3 
      1  0.100045D+02
      2 -0.174063D+00  0.129457D+02
      3 -0.110120D+01 -0.112028D+00  0.126077D+02
 Dipole Derivatives after L703:
                 1             2             3             4             5 
      1   0.142958D+01 -0.154652D-02 -0.420803D+00 -0.858286D-01  0.101436D+00
      2   0.146508D-01  0.229279D+01  0.698297D-02 -0.506653D-01 -0.445933D+00
      3  -0.436242D+00 -0.352600D-04  0.219019D+01  0.101735D-01 -0.201791D+00
                 6             7             8             9            10 
      1   0.164632D+00 -0.105879D+00 -0.560413D-01  0.672418D-01 -0.245916D-03
      2  -0.265944D+00  0.140856D+00 -0.597271D+00  0.168751D+00 -0.130866D-05
      3  -0.435557D+00  0.113983D-01  0.909763D-01 -0.245510D+00  0.416655D-05
                11            12            13            14            15 
      1  -0.169464D-05  0.411317D-05 -0.237628D+00 -0.438467D-01  0.188925D+00
      2   0.123537D-03 -0.260038D-05 -0.104841D+00 -0.249710D+00  0.902124D-01
      3  -0.230244D-05  0.127599D-03  0.414666D+00  0.110852D+00 -0.509249D+00
 Hessian after L703:
                1             2             3             4             5 
      1  0.486742D+00
      2  0.363950D-01  0.785320D+00
      3 -0.282535D+00  0.144639D-01  0.874915D+00
      4 -0.930880D-01 -0.297603D-02  0.989853D-02  0.602948D-01
      5  0.215376D-01 -0.293674D+00 -0.189342D+00 -0.408549D-01  0.379220D+00
      6  0.331931D-01 -0.201049D+00 -0.321203D+00 -0.702712D-01  0.266337D+00
      7 -0.105561D+00  0.506235D-01 -0.827111D-02  0.276614D-01  0.114346D-01
      8  0.165690D-01 -0.356662D+00  0.783612D-01  0.247955D-01 -0.109884D+00
      9  0.665475D-03  0.931404D-01 -0.145568D+00  0.178398D-02 -0.454380D-01
     10  0.000000D+00  0.000000D+00  0.000000D+00  0.000000D+00  0.000000D+00
     11  0.000000D+00  0.000000D+00  0.000000D+00  0.000000D+00  0.000000D+00
     12  0.000000D+00  0.000000D+00  0.000000D+00  0.000000D+00  0.000000D+00
     13 -0.288094D+00 -0.840425D-01  0.280908D+00  0.513197D-02  0.788267D-02
     14 -0.745016D-01 -0.134984D+00  0.965170D-01  0.190355D-01  0.243385D-01
     15  0.248676D+00  0.934450D-01 -0.408143D+00  0.585887D-01 -0.315568D-01
                6             7             8             9            10 
      6  0.389154D+00
      7 -0.302386D-02  0.628536D-01
      8 -0.229616D-01 -0.240346D-01  0.510337D+00
      9  0.196790D-01 -0.231034D-01 -0.126555D+00  0.161596D+00
     10  0.000000D+00  0.000000D+00  0.000000D+00  0.000000D+00  0.000000D+00
     11  0.000000D+00  0.000000D+00  0.000000D+00  0.000000D+00  0.000000D+00
     12  0.000000D+00  0.000000D+00  0.000000D+00  0.000000D+00  0.000000D+00
     13  0.401019D-01  0.150460D-01 -0.173299D-01  0.206539D-01  0.000000D+00
     14 -0.423260D-01 -0.380235D-01 -0.437905D-01  0.788525D-01  0.000000D+00
     15 -0.876309D-01  0.343983D-01  0.711554D-01 -0.357069D-01  0.000000D+00
               11            12            13            14            15 
     11  0.000000D+00
     12  0.000000D+00  0.000000D+00
     13  0.000000D+00  0.000000D+00  0.267916D+00
     14  0.000000D+00  0.000000D+00  0.934896D-01  0.154436D+00
     15  0.000000D+00  0.000000D+00 -0.341663D+00 -0.133043D+00  0.531481D+00
 Leave Link  703 at Sat Mar  4 13:43:14 2017, MaxMem=   655360000 cpu:         3.6
 (Enter /mnt/software/gaussian/g09/l716.exe)
 FrcOut:
 IF    =    42 IFX   =    57 IFXYZ =    72
 IFFX  =    87 IFFFX =   207 IFLen =    15
 IFFLen=   120 IFFFLn=     0 IEDerv=   207
 LEDerv=   773 IFroze=  1169 ICStrt= 12633
 Dipole        =-4.56150299D+00-1.08657036D-01 3.50109729D-01
 DipoleDeriv   = 1.42958143D+00 1.46508325D-02-4.36241785D-01
                -1.54652478D-03 2.29279040D+00-3.52600461D-05
                -4.20803003D-01 6.98296819D-03 2.19018822D+00
                -8.58286148D-02-5.06652578D-02 1.01735048D-02
                 1.01436234D-01-4.45932996D-01-2.01790599D-01
                 1.64631920D-01-2.65943650D-01-4.35556873D-01
                -1.05878564D-01 1.40856369D-01 1.13983284D-02
                -5.60413402D-02-5.97271423D-01 9.09762578D-02
                 6.72418075D-02 1.68750896D-01-2.45510012D-01
                -2.45916303D-04-1.30866128D-06 4.16654556D-06
                -1.69464208D-06 1.23536947D-04-2.30244490D-06
                 4.11316558D-06-2.60038449D-06 1.27598956D-04
                -2.37628331D-01-1.04840635D-01 4.14665786D-01
                -4.38466740D-02-2.49709514D-01 1.10851904D-01
                 1.88925163D-01 9.02123862D-02-5.09248938D-01
 Polarizability= 1.00044714D+01-1.74063381D-01 1.29457045D+01
                -1.10119565D+00-1.12028323D-01 1.26076521D+01
 PolarDeriv    = 4.06630164D+00-1.62420808D-01 1.88702204D+00
                 2.89535412D-01-1.53832938D-01 1.72859881D+00
                 3.77023918D-03 1.85174897D+00-7.57622009D-01
                -1.15073464D-01 1.33843626D+00 2.21869974D-01
                 1.07340658D-01-1.56532367D-01 1.29618331D+00
                 1.69172303D+00 1.25333537D-01 2.39845437D+00
                -2.81302479D-01-8.60354587D-01-2.26983916D-01
                -1.13352675D+00 1.60955073D-01 1.16317437D-02
                -3.70338323D-01-4.65837334D-02-3.48402801D+00
                -3.07311312D-02-1.63647303D+00-1.18499890D+00
                -6.82935164D-01-1.02542711D-01-1.30482614D+00
                 1.74682595D-01-1.53642899D+00-3.92881510D+00
                -9.45390198D-01 1.40889438D+00-5.83136359D-01
                -5.81413357D-01-9.90291456D-02-3.85590340D-01
                 6.72378998D-01-8.11213523D-01 5.34229407D+00
                -1.55499205D-02-1.07881811D+00 1.22012278D+00
                -4.42719955D-01 5.92611772D-02-8.32070679D-01
                -1.90986556D-01 1.81736448D+00-1.75433963D+00
                -4.57407316D-04-6.19166750D-05 3.02296249D-04
                 1.47024641D-04 3.08293932D-05 2.38671765D-04
                 7.44078540D-05-1.72668884D-04-1.55639495D-05
                 1.01842264D-03 1.91754621D-05-7.29153731D-05
                -2.12813983D-04 1.01560617D-03 4.11878921D-05
                -2.05528989D-03-6.82986815D-05 1.37872824D-04
                -2.83915156D+00-3.86057068D-01-1.07720406D+00
                 1.42525767D+00 9.18761815D-02-1.35487889D+00
                -3.05885322D-01-9.93779048D-01-1.10062848D+00
                 1.60336093D-01 1.37683571D+00-2.56920943D-01
                 1.01852728D+00 1.98798296D-01 8.40672320D-01
                -1.67336378D+00-4.06200732D-01 3.28456248D+00
 HyperPolar    = 1.03320489D+01 1.59282959D-01 6.75330374D+00
                -5.41062119D+00-3.11842676D+00-1.53557368D+00
                 8.71496036D+00 6.48318920D+00 3.80788574D+00
                 6.73681621D+00
 VibFq2-Diag1:  N=     15 IV=           6 MDV=   655346161 NE2=    43689743
 Full mass-weighted force constant matrix:
 Low frequencies ---  -51.5679   -1.0483   -0.0011   -0.0010    0.0007    0.5157
 Low frequencies ---    0.7716   58.1525  139.8334
 OrtVCM:  Ph=1 IPass= 1 DotMx1= 0.00D+00
 OrtVCM:  IS=    1 I=    1 IndO=    1 Dot= 1.00D+00 DotN= 1.00D+00 ElMax1= 4.65D-01 ElMax1N= 4.65D-01
 OrtVCM:  Ph=2 NNew=    0 IAdd=    2 IPass= 1 DotMx2= 0.00D+00
 OrtVCM:  IS=    1 I=    2 IndO=    2 Dot= 1.00D+00 DotN= 1.00D+00 ElMax1= 4.65D-01 ElMax1N= 4.65D-01
 OrtVCM:  Ph=2 NNew=    0 IAdd=    3 IPass= 1 DotMx2= 0.00D+00
 OrtVCM:  IS=    1 I=    3 IndO=    3 Dot= 1.00D+00 DotN= 1.00D+00 ElMax1= 4.65D-01 ElMax1N= 4.65D-01
 OrtVCM:  Ph=2 NNew=    0 IAdd=    4 IPass= 1 DotMx2= 5.55D-17
 OrtVCM:  IS=    1 I=    4 IndO=    4 Dot= 1.00D+00 DotN= 1.00D+00 ElMax1= 5.79D-01 ElMax1N= 5.79D-01
 OrtVCM:  Ph=2 NNew=    0 IAdd=    5 IPass= 1 DotMx2= 1.89D-15
 OrtVCM:  IS=    1 I=    5 IndO=    5 Dot= 1.00D+00 DotN= 1.00D+00 ElMax1= 8.78D-01 ElMax1N= 8.78D-01
 OrtVCM:  Ph=2 NNew=    0 IAdd=    6 IPass= 1 DotMx2= 4.16D-17
 OrtVCM:  IS=    1 I=    6 IndO=    6 Dot= 1.00D+00 DotN= 1.00D+00 ElMax1= 8.77D-01 ElMax1N= 8.77D-01
 OrtVCM:  Ph=1 IPass= 1 DotMx1= 5.79D-01
 OrtVCM:  Ph=1 IPass= 2 DotMx1= 2.50D-16
 OrtVCM:  IS=    1 I=    1 IndO=    7 Dot= 8.64D-01 DotN= 8.64D-01 ElMax1= 8.64D-01 ElMax1N= 8.64D-01
 OrtVCM:  Ph=2 NNew=    0 IAdd=    2 IPass= 1 DotMx2= 2.77D-04
 OrtVCM:  Ph=2 NNew=    0 IAdd=    2 IPass= 2 DotMx2= 2.64D-19
 OrtVCM:  IS=    1 I=    2 IndO=    8 Dot= 8.31D-01 DotN= 8.31D-01 ElMax1= 8.31D-01 ElMax1N= 8.31D-01
 OrtVCM:  Ph=2 NNew=    0 IAdd=    3 IPass= 1 DotMx2= 1.52D-03
 OrtVCM:  Ph=2 NNew=    0 IAdd=    3 IPass= 2 DotMx2= 8.67D-19
 OrtVCM:  IS=    1 I=    3 IndO=    9 Dot= 8.33D-01 DotN= 8.33D-01 ElMax1= 8.33D-01 ElMax1N= 8.33D-01
 OrtVCM:  Ph=2 NNew=    0 IAdd=    4 IPass= 1 DotMx2= 1.84D-01
 OrtVCM:  Ph=2 NNew=    0 IAdd=    4 IPass= 2 DotMx2= 3.11D-17
 OrtVCM:  IS=    1 I=    4 IndO=   10 Dot= 7.39D-01 DotN= 7.39D-01 ElMax1= 7.39D-01 ElMax1N= 7.39D-01
 OrtVCM:  Ph=2 NNew=    0 IAdd=    5 IPass= 1 DotMx2= 2.08D-01
 OrtVCM:  Ph=2 NNew=    0 IAdd=    5 IPass= 2 DotMx2= 1.39D-17
 OrtVCM:  IS=    1 I=    5 IndO=   11 Dot= 5.26D-01 DotN= 5.26D-01 ElMax1= 5.26D-01 ElMax1N= 5.26D-01
 OrtVCM:  Ph=2 NNew=    0 IAdd=    6 IPass= 1 DotMx2= 2.35D-01
 OrtVCM:  Ph=2 NNew=    0 IAdd=    6 IPass= 2 DotMx2= 2.78D-17
 OrtVCM:  IS=    1 I=    6 IndO=   12 Dot= 4.46D-01 DotN= 4.46D-01 ElMax1= 4.46D-01 ElMax1N= 4.46D-01
 OrtVCM:  Ph=2 NNew=    0 IAdd=    7 IPass= 1 DotMx2= 2.84D-01
 OrtVCM:  Ph=2 NNew=    0 IAdd=    7 IPass= 2 DotMx2= 1.39D-16
 OrtVCM:  IS=    1 I=    7 IndO=   13 Dot= 6.56D-01 DotN= 6.56D-01 ElMax1= 6.56D-01 ElMax1N= 6.56D-01
 OrtVCM:  Ph=2 NNew=    0 IAdd=    8 IPass= 1 DotMx2= 5.29D-01
 OrtVCM:  Ph=2 NNew=    0 IAdd=    8 IPass= 2 DotMx2= 1.67D-16
 OrtVCM:  IS=    1 I=    8 IndO=   14 Dot= 2.83D-01 DotN= 2.83D-01 ElMax1= 2.83D-01 ElMax1N= 2.83D-01
 OrtVCM:  Ph=2 NNew=    0 IAdd=    9 IPass= 1 DotMx2= 4.88D-01
 OrtVCM:  Ph=2 NNew=    0 IAdd=    9 IPass= 2 DotMx2= 9.08D-17
 OrtVCM:  IS=    1 I=    9 IndO=    0 Dot= 1.70D-32 DotN= 1.70D-32 ElMax1= 7.26D-17 ElMax1N= 7.26D-17
 SchOr2:  IPass= 1 Test2A= 1.00D-01 IOff=     0 NDo=     9 NNew=     8
 OrtVCM:  Ph=1 IPass= 1 DotMx1= 4.65D-01
 OrtVCM:  Ph=1 IPass= 2 DotMx1= 7.94D-17
 OrtVCM:  IS=    1 I=    1 IndO=   15 Dot= 4.97D-01 DotN= 4.97D-01 ElMax1= 4.97D-01 ElMax1N= 4.97D-01
 SchOr2:  IPass= 1 Test2A= 1.00D-01 IOff=     9 NDo=     1 NNew=     1
 VibFq2-Diag2:  N=      9 IV=           6 MDV=   655346161 NE2=    72816239
 ******    1 imaginary frequencies (negative Signs) ****** 
 Dipole derivatives wrt mode   1: -1.74860D+00 -5.42656D-04 -1.01668D-02
 Polarizability derivatives wrt mode          1
                 1             2             3 
      1  -0.328952D-04 -0.394509D-05  0.890903D-05
      2  -0.394509D-05  0.219196D-04  0.231239D-05
      3   0.890903D-05  0.231239D-05  0.163056D-04
 Vibrational polarizability contributions from mode   1   74873.3765213       0.0072110       2.5311443
 IFr=  0 A012= 0.43D-10 0.18D-07 0.30D-08 Act= 0.21D-07 DepolP= 0.74D+00 DepolU= 0.85D+00
 Dipole derivatives wrt mode   2: -1.00932D-01 -8.82020D-02  7.38103D-01
 Polarizability derivatives wrt mode          2
                 1             2             3 
      1   0.649511D-01  0.772171D-02 -0.527220D-01
      2   0.772171D-02  0.139446D-01  0.967003D-02
      3  -0.527220D-01  0.967003D-02 -0.666891D-01
 Vibrational polarizability contributions from mode   2       0.0901080       0.0688115       4.8188022
 IFr=  0 A012= 0.22D-03 0.13D+00 0.22D-01 Act= 0.15D+00 DepolP= 0.74D+00 DepolU= 0.85D+00
 Dipole derivatives wrt mode   3: -6.19698D-02  5.85757D-01  9.19194D-02
 Polarizability derivatives wrt mode          3
                 1             2             3 
      1   0.100023D-01 -0.806919D-01 -0.124623D-01
      2  -0.806919D-01 -0.115211D-01 -0.253342D-01
      3  -0.124623D-01 -0.253342D-01 -0.404921D-02
 Vibrational polarizability contributions from mode   3       0.0063125       0.5639993       0.0138886
 IFr=  0 A012= 0.47D-04 0.13D+00 0.22D-01 Act= 0.16D+00 DepolP= 0.75D+00 DepolU= 0.86D+00
 Dipole derivatives wrt mode   4:  4.16174D-01  3.65544D+00 -4.24273D-01
 Polarizability derivatives wrt mode          4
                 1             2             3 
      1  -0.141026D-01  0.540064D-01  0.534882D-01
      2   0.540064D-01  0.156567D+00 -0.987546D-01
      3   0.534882D-01 -0.987546D-01 -0.118614D+00
 Vibrational polarizability contributions from mode   4       0.0113330       0.8743290       0.0117784
 IFr=  0 A012= 0.85D-03 0.63D+00 0.10D+00 Act= 0.73D+00 DepolP= 0.74D+00 DepolU= 0.85D+00
 Dipole derivatives wrt mode   5: -1.59075D+00  6.03784D-01  3.51501D+00
 Polarizability derivatives wrt mode          5
                 1             2             3 
      1  -0.329500D-02  0.641382D-01 -0.243151D-01
      2   0.641382D-01 -0.125017D+00 -0.136835D+00
      3  -0.243151D-01 -0.136835D+00  0.105952D+00
 Vibrational polarizability contributions from mode   5       0.1574241       0.0226794       0.7686388
 IFr=  0 A012= 0.75D-03 0.66D+00 0.11D+00 Act= 0.77D+00 DepolP= 0.75D+00 DepolU= 0.85D+00
 Dipole derivatives wrt mode   6:  8.20864D+00 -1.88360D-01  3.68406D+00
 Polarizability derivatives wrt mode          6
                 1             2             3 
      1   0.214403D+00 -0.153854D-01  0.123206D+00
      2  -0.153854D-01 -0.275954D-01 -0.587659D-02
      3   0.123206D+00 -0.587659D-02  0.265806D-01
 Vibrational polarizability contributions from mode   6       2.4761083       0.0013038       0.4987477
 IFr=  0 A012= 0.68D-01 0.71D+00 0.12D+00 Act= 0.89D+00 DepolP= 0.47D+00 DepolU= 0.64D+00
 Dipole derivatives wrt mode   7:  3.78145D+00 -3.68726D+00  4.63419D+00
 Polarizability derivatives wrt mode          7
                 1             2             3 
      1   0.254823D+00 -0.501713D-01 -0.105015D-01
      2  -0.501713D-01  0.432725D+00 -0.290224D-01
      3  -0.105015D-01 -0.290224D-01  0.386075D+00
 Vibrational polarizability contributions from mode   7       0.3000761       0.2853128       0.4506725
 IFr=  0 A012= 0.17D+01 0.37D+01 0.61D+00 Act= 0.60D+01 DepolP= 0.18D-01 DepolU= 0.36D-01
 Dipole derivatives wrt mode   8:  3.13324D-01  2.05778D+01  1.81165D+00
 Polarizability derivatives wrt mode          8
                 1             2             3 
      1   0.480334D-01  0.154862D+00 -0.199815D-01
      2   0.154862D+00 -0.285131D-01  0.165581D+00
      3  -0.199815D-01  0.165581D+00  0.131172D+00
 Vibrational polarizability contributions from mode   8       0.0011413       4.9227021       0.0381556
 IFr=  0 A012= 0.34D-01 0.11D+01 0.19D+00 Act= 0.13D+01 DepolP= 0.65D+00 DepolU= 0.78D+00
 Dipole derivatives wrt mode   9: -9.47949D+00 -1.01711D+00  1.94531D+01
 Polarizability derivatives wrt mode          9
                 1             2             3 
      1  -0.193552D+00 -0.292817D-01  0.155645D+00
      2  -0.292817D-01  0.284514D-01  0.479549D-01
      3   0.155645D+00  0.479549D-01  0.448971D-01
 Vibrational polarizability contributions from mode   9       0.7976494       0.0091828       3.3590833
 IFr=  0 A012= 0.22D-01 0.86D+00 0.14D+00 Act= 0.10D+01 DepolP= 0.66D+00 DepolU= 0.80D+00
 Diagonal vibrational polarizability:
    74877.2166740       6.7555318      12.4909115
 Diagonal vibrational hyperpolarizability:
      161.7670704      -3.3317303     -40.3560215
 NorSel:  MapVib=      1      2      3      4      5      6      7      8      9
 Harmonic frequencies (cm**-1), IR intensities (KM/Mole), Raman scattering
 activities (A**4/AMU), depolarization ratios for plane and unpolarized
 incident light, reduced masses (AMU), force constants (mDyne/A),
 and normal coordinates:
                           1         2         3         4         5
                           A         A         A         A         A
       Frequencies ---    -1.0483   55.1587  127.9513  641.3107  657.7063
    Reduced masses ---    18.5912   18.8449   18.8672   18.2050   18.1542
   Force constants ---     0.0000    0.0338    0.1820    4.4114    4.6269
    IR Intensities ---     3.0577    0.5628    0.3554   13.7154   15.2503
  Raman Activities ---     0.0000    0.1548    0.1561    0.7342    0.7748
    Depol. (Plane) ---     0.7413    0.7437    0.7487    0.7449    0.7458
    Depol. (Unpol) ---     0.8514    0.8530    0.8563    0.8538    0.8544
 Coord Atom Element:
   1     1     6         -0.24120  -0.01817  -0.02210   0.04411  -0.14339
   2     1     6         -0.00007  -0.01948   0.13439   0.33166   0.05045
   3     1     6         -0.00141   0.14570   0.01416  -0.03769   0.31229
   1     2     9         -0.24119   0.43096   0.63580  -0.20191   0.01269
   2     2     9         -0.00007  -0.05710   0.12591  -0.13926   0.53102
   3     2     9         -0.00141   0.22509   0.10418   0.48348   0.02273
   1     3     9         -0.24119   0.28679  -0.70867   0.03936   0.23871
   2     3     9         -0.00007   0.01797   0.02088   0.44863  -0.22420
   3     3     9         -0.00141   0.14367  -0.11296  -0.17986  -0.50873
   1     4     9          0.87594   0.00064   0.00013  -0.00001   0.00007
   2     4     9          0.00027   0.01649  -0.11699  -0.00913  -0.00039
   3     4     9          0.00512  -0.11250  -0.01655   0.00214  -0.01157
   1     5     9         -0.24121  -0.70692   0.08670   0.13470  -0.16090
   2     5     9         -0.00007   0.03494  -0.11468  -0.50973  -0.33830
   3     5     9         -0.00142  -0.34829   0.01638  -0.28196   0.30031
                           6         7         8         9
                           A         A         A         A
       Frequencies ---   855.7614 1132.4257 1521.4679 1741.1879
    Reduced masses ---    14.1372   16.4710   13.3337   13.3305
   Force constants ---     6.0998   12.4449   18.1855   23.8115
    IR Intensities ---    80.9895   49.3710  426.8243  469.3195
  Raman Activities ---     0.8909    6.0149    1.3353    1.0197
    Depol. (Plane) ---     0.4685    0.0183    0.6451    0.6617
    Depol. (Unpol) ---     0.6381    0.0358    0.7843    0.7964
 Coord Atom Element:
   1     1     6          0.76266   0.44695   0.06173  -0.43191
   2     1     6         -0.00835  -0.19466   0.89202  -0.04189
   3     1     6          0.33602   0.35139   0.09961   0.78841
   1     2     9         -0.23680   0.02739   0.00993   0.02244
   2     2     9          0.19140  -0.28162  -0.23903  -0.09468
   3     2     9          0.09161  -0.34347  -0.22654  -0.14317
   1     3     9         -0.20602  -0.06794   0.02868   0.01255
   2     3     9         -0.25353   0.48431  -0.23259   0.03648
   3     3     9         -0.00581  -0.19326   0.07486  -0.04593
   1     4     9         -0.00002   0.00000   0.00000   0.00002
   2     4     9         -0.00323   0.00098  -0.00508   0.00043
   3     4     9          0.00362  -0.00042  -0.00024  -0.00411
   1     5     9         -0.03888  -0.24176  -0.07761   0.23779
   2     5     9          0.07063  -0.08072  -0.08673   0.08423
   3     5     9         -0.30166   0.31519   0.08900  -0.30478
 Harmonic frequencies (cm**-1), IR intensities (KM/Mole), Raman scattering
 activities (A**4/AMU), depolarization ratios for plane and unpolarized
 incident light, reduced masses (AMU), force constants (mDyne/A),
 and normal coordinates:
                      1                      2                      3
                      A                      A                      A
 Frequencies --     -1.0483                55.1587               127.9513
 Red. masses --     18.5912                18.8449                18.8672
 Frc consts  --      0.0000                 0.0338                 0.1820
 IR Inten    --      3.0577                 0.5628                 0.3554
 Raman Activ --      0.0000                 0.1548                 0.1561
 Depolar (P) --      0.7413                 0.7437                 0.7487
 Depolar (U) --      0.8514                 0.8530                 0.8563
  Atom  AN      X      Y      Z        X      Y      Z        X      Y      Z
     1   6    -0.24   0.00   0.00    -0.02  -0.02   0.15    -0.02   0.13   0.01
     2   9    -0.24   0.00   0.00     0.43  -0.06   0.23     0.64   0.13   0.10
     3   9    -0.24   0.00   0.00     0.29   0.02   0.14    -0.71   0.02  -0.11
     4   9     0.88   0.00   0.01     0.00   0.02  -0.11     0.00  -0.12  -0.02
     5   9    -0.24   0.00   0.00    -0.71   0.03  -0.35     0.09  -0.11   0.02
                      4                      5                      6
                      A                      A                      A
 Frequencies --    641.3107               657.7063               855.7614
 Red. masses --     18.2050                18.1542                14.1372
 Frc consts  --      4.4114                 4.6269                 6.0998
 IR Inten    --     13.7154                15.2503                80.9895
 Raman Activ --      0.7342                 0.7748                 0.8909
 Depolar (P) --      0.7449                 0.7458                 0.4685
 Depolar (U) --      0.8538                 0.8544                 0.6381
  Atom  AN      X      Y      Z        X      Y      Z        X      Y      Z
     1   6     0.04   0.33  -0.04    -0.14   0.05   0.31     0.76  -0.01   0.34
     2   9    -0.20  -0.14   0.48     0.01   0.53   0.02    -0.24   0.19   0.09
     3   9     0.04   0.45  -0.18     0.24  -0.22  -0.51    -0.21  -0.25  -0.01
     4   9     0.00  -0.01   0.00     0.00   0.00  -0.01     0.00   0.00   0.00
     5   9     0.13  -0.51  -0.28    -0.16  -0.34   0.30    -0.04   0.07  -0.30
                      7                      8                      9
                      A                      A                      A
 Frequencies --   1132.4257              1521.4679              1741.1879
 Red. masses --     16.4710                13.3337                13.3305
 Frc consts  --     12.4449                18.1855                23.8115
 IR Inten    --     49.3710               426.8243               469.3195
 Raman Activ --      6.0149                 1.3353                 1.0197
 Depolar (P) --      0.0183                 0.6451                 0.6617
 Depolar (U) --      0.0358                 0.7843                 0.7964
  Atom  AN      X      Y      Z        X      Y      Z        X      Y      Z
     1   6     0.45  -0.19   0.35     0.06   0.89   0.10    -0.43  -0.04   0.79
     2   9     0.03  -0.28  -0.34     0.01  -0.24  -0.23     0.02  -0.09  -0.14
     3   9    -0.07   0.48  -0.19     0.03  -0.23   0.07     0.01   0.04  -0.05
[...]
                                                             IR Spectrum
 
     1                1                           1                                                                                  
     7                5                           1                   8              66                                    1         
     4                2                           3                   5              54                                    2    5    
     1                1                           2                   6              81                                    8    5    
 
     X                X                           X                   X              XX                                    X    X    
     X                X                           X                   X                                                              
     X                X                                               X                                                              
     X                X                                                                                                              
     X                X                                                                                                              
     X                X                                                                                                              
     X                X                                                                                                              
     X                X                                                                                                              
     X                X                                                                                                              
     X                X                                                                                                              
     X                X                                                                                                              
     X                X                                                                                                              
     X                X                                                                                                              
     X                X                                                                                                              
     X                X                                                                                                              
     X                X                                                                                                              
     X                X                                                                                                              
     X                X                                                                                                              
     X                                                                                                                               
     X                                                                                                                               
 
 
                                                          Distorted Ethanol
                                                            Raman Spectrum
 
     1                1                           1                                                                                  
     7                5                           1                   8              66                                    1         
     4                2                           3                   5              54                                    2    5    
     1                1                           2                   6              81                                    8    5    
 
     X                X                           X                   X              XX                                    X    X    
     X                X                           X                   X              XX                                              
     X                X                           X                   X              X                                               
                      X                           X                                                                                  
                                                  X                                                                                  
                                                  X                                                                                  
                                                  X                                                                                  
                                                  X                                                                                  
                                                  X                                                                                  
                                                  X                                                                                  
                                                  X                                                                                  
                                                  X                                                                                  
                                                  X                                                                                  
                                                  X                                                                                  
                                                  X                                                                                  
                                                  X                                                                                  
                                                  X                                                                                  
                                                  X                                                                                  
                                                  X                                                                                  
                                                  X                                                                                  
 
 Forces in standard orientation:
 -------------------------------------------------------------------
 Center     Atomic                   Forces (Hartrees/Bohr)
 Number     Number              X              Y              Z
 -------------------------------------------------------------------
      1        6           0.165913973   -0.041674239    0.121616038
      2        9          -0.059219838    0.003982101   -0.032885392
      3        9          -0.064855824    0.023457272   -0.036583081
      4        9           0.000003525   -0.000000043    0.000000092
      5        9          -0.041841835    0.014234908   -0.052147658
 -------------------------------------------------------------------
 ***** Axes restored to original set *****
 Rotating derivatives, DoTrsp=F IDiff=-2 LEDeriv=    772 LFDPrp=       0 LDFDPr=       0.
 -------------------------------------------------------------------
 Center     Atomic                   Forces (Hartrees/Bohr)
 Number     Number              X              Y              Z
 -------------------------------------------------------------------
      1        6           0.100862686    0.174429603    0.058785046
      2        9          -0.036427174   -0.056837284   -0.006846867
      3        9          -0.027194698   -0.070663456   -0.019025450
      4        9           0.000001054    0.000003184   -0.000001088
      5        9          -0.037241869   -0.046932047   -0.032911642
 -------------------------------------------------------------------
 Cartesian Forces:  Max     0.174429603 RMS     0.062942587
 Z-matrix is all fixed cartesians, so copy forces.
 Force constants in Cartesian coordinates: 
                1             2             3             4             5 
      1  0.718419D+00
      2 -0.234187D+00  0.485457D+00
      3  0.631988D-01 -0.107078D+00  0.943101D+00
      4 -0.455800D+00  0.135786D+00 -0.608480D-01  0.557243D+00
      5  0.100144D+00 -0.127102D+00  0.178452D-01 -0.212775D+00  0.133212D+00
      6 -0.596252D-01  0.208081D-01 -0.125062D+00  0.844923D-01 -0.298036D-01
      7 -0.150837D+00  0.537826D-01  0.695021D-01 -0.647859D-01  0.681857D-01
      8  0.787812D-01 -0.185530D+00 -0.124168D+00  0.479535D-01 -0.113670D-01
      9  0.846004D-01 -0.995691D-01 -0.271424D+00  0.309454D-01 -0.298744D-01
     10  0.000000D+00  0.000000D+00  0.000000D+00  0.000000D+00  0.000000D+00
     11  0.000000D+00  0.000000D+00  0.000000D+00  0.000000D+00  0.000000D+00
     12  0.000000D+00  0.000000D+00  0.000000D+00  0.000000D+00  0.000000D+00
     13 -0.111781D+00  0.446185D-01 -0.718525D-01 -0.366577D-01  0.444455D-01
     14  0.552619D-01 -0.172825D+00  0.213402D+00  0.290358D-01  0.525702D-02
     15 -0.881737D-01  0.185840D+00 -0.546614D+00 -0.545898D-01  0.418327D-01
                6             7             8             9            10 
      6  0.138213D+00
      7  0.481704D-01  0.182500D+00
      8 -0.307536D-01 -0.124605D+00  0.172598D+00
      9  0.136088D-01 -0.134587D+00  0.158466D+00  0.379688D+00
     10  0.000000D+00  0.000000D+00  0.000000D+00  0.000000D+00  0.000000D+00
     11  0.000000D+00  0.000000D+00  0.000000D+00  0.000000D+00  0.000000D+00
     12  0.000000D+00  0.000000D+00  0.000000D+00  0.000000D+00  0.000000D+00
     13 -0.730375D-01  0.331235D-01 -0.212992D-02  0.190414D-01  0.000000D+00
     14  0.397491D-01  0.263647D-02  0.242985D-01 -0.290224D-01  0.000000D+00
     15 -0.267597D-01  0.169147D-01 -0.354416D-02 -0.121873D+00  0.000000D+00
               11            12            13            14            15 
     11  0.000000D+00
     12  0.000000D+00  0.000000D+00
     13  0.000000D+00  0.000000D+00  0.115315D+00
     14  0.000000D+00  0.000000D+00 -0.869342D-01  0.143270D+00
     15  0.000000D+00  0.000000D+00  0.125849D+00 -0.224129D+00  0.695247D+00
 Final forces over variables, Energy=-4.35105151D+02:
  1.00862686D-01-3.64271739D-02-2.71946977D-02 1.05432199D-06
 -3.72418687D-02 1.74429603D-01-5.68372838D-02-7.06634557D-02
  3.18417864D-06-4.69320473D-02 5.87850464D-02-6.84686733D-03
 -1.90254496D-02-1.08768045D-06-3.29116418D-02
 Leave Link  716 at Sat Mar  4 13:43:14 2017, MaxMem=   655360000 cpu:         0.2
 (Enter /mnt/software/gaussian/g09/l103.exe)

 GradGradGradGradGradGradGradGradGradGradGradGradGradGradGradGradGradGrad
 Berny optimization.
 Search for a local minimum.
 Step number   1 out of a maximum of    2
 All quantities printed in internal units (Hartrees-Bohrs-Radians)
 Second derivative matrix not updated -- analytic derivatives used.
 The second derivative matrix:
                          X1        Y1        Z1        X2        Y2
           X1           0.71842
           Y1          -0.23419   0.48546
           Z1           0.06320  -0.10708   0.94310
           X2          -0.45580   0.13579  -0.06085   0.55724
           Y2           0.10014  -0.12710   0.01785  -0.21278   0.13321
           Z2          -0.05963   0.02081  -0.12506   0.08449  -0.02980
           X3          -0.15084   0.05378   0.06950  -0.06479   0.06819
           Y3           0.07878  -0.18553  -0.12417   0.04795  -0.01137
           Z3           0.08460  -0.09957  -0.27142   0.03095  -0.02987
           X4           0.00000   0.00000   0.00000   0.00000   0.00000
           Y4           0.00000   0.00000   0.00000   0.00000   0.00000
           Z4           0.00000   0.00000   0.00000   0.00000   0.00000
           X5          -0.11178   0.04462  -0.07185  -0.03666   0.04445
           Y5           0.05526  -0.17283   0.21340   0.02904   0.00526
           Z5          -0.08817   0.18584  -0.54661  -0.05459   0.04183
                          Z2        X3        Y3        Z3        X4
           Z2           0.13821
           X3           0.04817   0.18250
           Y3          -0.03075  -0.12460   0.17260
           Z3           0.01361  -0.13459   0.15847   0.37969
           X4           0.00000   0.00000   0.00000   0.00000   0.00000
           Y4           0.00000   0.00000   0.00000   0.00000   0.00000
           Z4           0.00000   0.00000   0.00000   0.00000   0.00000
           X5          -0.07304   0.03312  -0.00213   0.01904   0.00000
           Y5           0.03975   0.00264   0.02430  -0.02902   0.00000
           Z5          -0.02676   0.01691  -0.00354  -0.12187   0.00000
                          Y4        Z4        X5        Y5        Z5
           Y4           0.00000
           Z4           0.00000   0.00000
           X5           0.00000   0.00000   0.11532
           Y5           0.00000   0.00000  -0.08693   0.14327
           Z5           0.00000   0.00000   0.12585  -0.22413   0.69525
 ITU=  0
     Eigenvalues ---    0.00000   0.00217   0.01169   0.28317   0.29742
     Eigenvalues ---    0.39015   0.84410   1.21999   1.59374
 Eigenvalue     1 is  -7.74D-07 should be greater than     0.000000 Eigenvector:
                          Y4        Z4        X4        Y5        Y1
   1                    0.79415  -0.29351   0.26024  -0.20809  -0.20809
                          Y3        Y2        Z1        Z2        Z5
   1                   -0.20808  -0.20808   0.07691   0.07691   0.07690
 Quadratic step=5.769D+00 exceeds max=3.000D-01 adjusted using Lamda=-3.764D-01.
 Angle between NR and scaled steps=  82.07 degrees.
 Angle between quadratic step and forces=  10.71 degrees.
 Linear search not attempted -- first point.
 TrRot= -0.004348 -0.008245 -0.000788 -1.900690 -0.000235  1.900795
 Variable       Old X    -DE/DX   Delta X   Delta X   Delta X     New X
                                 (Linear)    (Quad)   (Total)
    X1       -0.09781   0.10086   0.00000   0.13116   0.12579   0.02797
    Y1        8.30611   0.17443   0.00000   0.22828   0.21968   8.52579
    Z1       -1.64997   0.05879   0.00000   0.04555   0.04286  -1.60711
    X2        2.14098  -0.03643   0.00000  -0.02160  -0.02685   2.11413
    Y2        7.68787  -0.05684   0.00000  -0.07209  -0.08038   7.60749
    Z2       -1.23495  -0.00685   0.00000   0.00139  -0.00125  -1.23620
    X3       -0.92939  -0.02719   0.00000  -0.03964  -0.04500  -0.97439
    Y3        9.69755  -0.07066   0.00000  -0.06174  -0.07005   9.62749
    Z3        0.14453  -0.01903   0.00000   0.00448   0.00162   0.14616
    X4       -6.94118   0.00000   0.00000   0.00242  -0.00007  -6.94125
    Y4      -12.95367   0.00000   0.00000   0.00758   0.00002 -12.95365
    Z4        6.41661   0.00000   0.00000  -0.00361  -0.00099   6.41561
    X5       -0.46451  -0.03724   0.00000  -0.04826  -0.05387  -0.51837
    Y5        9.27158  -0.04693   0.00000  -0.06014  -0.06927   9.20231
    Z5       -3.70358  -0.03291   0.00000  -0.03945  -0.04224  -3.74582
         Item               Value     Threshold  Converged?
 Maximum Force            0.174430     0.000450     NO 
 RMS     Force            0.062943     0.000300     NO 
 Maximum Displacement     0.219679     0.001800     NO 
 RMS     Displacement     0.077254     0.001200     NO 
 Predicted change in Energy=-5.288416D-02
 GradGradGradGradGradGradGradGradGradGradGradGradGradGradGradGradGradGrad

 Leave Link  103 at Sat Mar  4 13:43:14 2017, MaxMem=   655360000 cpu:         0.1
 (Enter /mnt/software/gaussian/g09/l9999.exe)

 Test job not archived.
 1\1\GINC-TP-LINUX1\Freq\UHF\6-31G(d)\C1F4(1+,2)\THOMAS\04-Mar-2017\0\\
 #P UHF/6-31g* IOP(7/33=1) IOP(7/8=11) Freq\\Distorted Ethanol\\1,2\C,-
 0.051761,4.395403,-0.873127\F,1.132957,4.068248,-0.653506\F,-0.491813,
 5.131721,0.076484\F,-3.673113,-6.854787,3.395523\F,-0.245806,4.90631,-
 1.959851\\Version=ES64L-G09RevD.01\State=2-A\HF=-435.1051511\S2=0.7526
 73\S2-1=0.\S2A=0.750003\RMSD=2.171e-09\RMSF=6.294e-02\ZeroPoint=0.0153
 388\Thermal=0.0200394\Dipole=1.1630955,4.0201246,-1.8513508\DipoleDeri
 v=2.014022,-0.4932861,0.0286913,-0.4879066,1.5466094,-0.0347076,0.0407
 736,-0.0153415,2.3519286,-0.5811908,0.3312093,-0.0783396,0.1071344,-0.
 1544492,0.0120996,-0.0587892,0.0348173,-0.2316785,-0.2477786,0.0844857
 ,0.083625,0.2240237,-0.2371017,-0.2428011,0.1658715,-0.0954894,-0.4637
 798,0.0000931,-0.0000935,0.0000383,-0.0000933,-0.0001716,0.0001151,0.0
 00038,0.0001154,0.0000837,-0.1851458,0.0776846,-0.0340151,0.1568418,-0
 .154887,0.2652941,-0.1478939,0.0758981,-0.656554\Polar=11.9487282,-1.5
 141389,10.6036196,0.1842758,0.2646194,13.0054802\PolarDeriv=-3.2924603
 ,-1.1522186,-0.3822507,-0.2986936,0.0773555,-0.7299306,-1.1259841,-0.3
 459868,-4.1896409,0.10419,-0.3997481,-2.0357679,-0.1723448,0.161317,-0
 .1827483,-0.7153651,-2.0738455,-0.1981976,5.3137888,-0.8687225,0.92722
 26,0.4091555,0.0267987,1.3094162,-0.7227882,1.5709744,-0.582234,-0.062
 5533,0.2623455,-0.1016121,0.4004389,-0.0194574,0.065494,1.6652684,-0.5
 852975,0.8225426,-1.4141957,1.282908,-0.5027001,1.2815352,-0.4427553,-
 0.4583193,1.0145732,-0.8737062,2.8668238,-0.2041506,1.5630957,1.194658
 3,0.6494775,-0.4338597,1.1449744,-0.7334438,1.5652543,4.0170677,-0.000
 0283,0.000206,0.0006544,0.0001778,0.0005038,-0.0006181,-0.0000825,0.00
 04279,0.0004247,-0.0000317,0.0000999,-0.0004212,0.0005623,0.0008833,0.
 0009703,0.0002757,0.0016941,-0.0014878,-0.6071044,0.737827,-0.0429261,
 -1.3921748,0.3380973,-0.1205481,0.8342817,-0.3517093,1.9046265,0.16254
 56,-1.425793,0.9431429,-0.8781339,0.2911168,-1.0286904,-0.2167352,1.09
 21947,-4.6399249\HyperPolar=-15.7742709,-0.6147828,1.4011224,-11.34892
 46,-2.2182707,1.6035916,-1.5601255,0.2832567,-10.5486322,1.6949486\PG=
 C01 [X(C1F4)]\NImag=1\\0.71841879,-0.23418708,0.48545698,0.06319876,-0
 .10707844,0.94310116,-0.45579984,0.13578559,-0.06084801,0.55724329,0.1
 0014382,-0.12710234,0.01784522,-0.21277504,0.13321236,-0.05962520,0.02
 080812,-0.12506234,0.08449227,-0.02980363,0.13821321,-0.15083734,0.053
 78263,0.06950205,-0.06478589,0.06818572,0.04817044,0.18249971,0.078781
 19,-0.18552980,-0.12416804,0.04795355,-0.01136698,-0.03075363,-0.12460
 480,0.17259831,0.08460036,-0.09956908,-0.27142385,0.03094544,-0.029874
 37,0.01360881,-0.13458725,0.15846571,0.37968828,-0.00000034,0.00000032
 ,-0.00000029,0.00000014,-0.00000004,0.00000004,0.00000005,-0.00000002,
 0.00000001,0.00000011,0.00000014,0.00000064,-0.00000057,0.00000006,-0.
 00000007,0.00000006,-0.00000003,-0.00000002,0.00000010,-0.00000019,-0.
 00000046,-0.00000026,-0.00000042,-0.00000049,0.00000005,0.00000006,0.0
 0000004,0.00000004,0.00000012,0.00000008,0.00000013,0.00000027,0.00000
 022,-0.11178126,0.04461854,-0.07185252,-0.03665769,0.04444553,-0.07303
 755,0.03312347,-0.00212992,0.01904144,0.00000005,0.00000001,0.00000003
 ,0.11531543,0.05526192,-0.17282549,0.21340183,0.02903585,0.00525702,0.
 03974908,0.00263647,0.02429849,-0.02902236,-0.00000007,-0.00000010,-0.
 00000003,-0.08693416,0.14327008,-0.08817366,0.18583982,-0.54661447,-0.
 05458975,0.04183271,-0.02675972,0.01691472,-0.00354416,-0.12187332,0.0
 0000010,0.00000014,0.00000015,0.12584859,-0.22412852,0.69524737\\-0.10
 086269,-0.17442960,-0.05878505,0.03642717,0.05683728,0.00684687,0.0271
 9470,0.07066346,0.01902545,-0.00000105,-0.00000318,0.00000109,0.037241
 87,0.04693205,0.03291164\\\@


 THERE ARE PEOPLE SO ADDICTED TO EXAGERATING THEY
 CAN'T TELL THE TRUTH WITHOUT LYING. -- FORTUNE COOKIE
 Job cpu time:       0 days  0 hours  0 minutes 22.1 seconds.
 File lengths (MBytes):  RWF=     12 Int=      0 D2E=      0 Chk=      2 Scr=      1
 Normal termination of Gaussian 09 at Sat Mar  4 13:43:14 2017.
