 Entering Gaussian System, Link 0=g09
 Input=/home/thomas/cf4/DD-vMCG/dd_data/gwp18_V1_dd_data.com
 Output=/home/thomas/cf4/DD-vMCG/dd_data/gwp18_V1_dd_data.log
 Initial command:
 /mnt/software/gaussian/g09/l1.exe "/scratch/Gau-826.inp" -scrdir="/scratch/"
 Entering Link 1 = /mnt/software/gaussian/g09/l1.exe PID=       828.
  
 Copyright (c) 1988,1990,1992,1993,1995,1998,2003,2009,2013,
            Gaussian, Inc.  All Rights Reserved.
  
 This is part of the Gaussian(R) 09 program.  It is based on
 the Gaussian(R) 03 system (copyright 2003, Gaussian, Inc.),
 the Gaussian(R) 98 system (copyright 1998, Gaussian, Inc.),
 the Gaussian(R) 94 system (copyright 1995, Gaussian, Inc.),
 the Gaussian 92(TM) system (copyright 1992, Gaussian, Inc.),
 the Gaussian 90(TM) system (copyright 1990, Gaussian, Inc.),
 the Gaussian 88(TM) system (copyright 1988, Gaussian, Inc.),
 the Gaussian 86(TM) system (copyright 1986, Carnegie Mellon
 University), and the Gaussian 82(TM) system (copyright 1983,
 Carnegie Mellon University). Gaussian is a federally registered
 trademark of Gaussian, Inc.
  
 This software contains proprietary and confidential information,
 including trade secrets, belonging to Gaussian, Inc.
  
 This software is provided under written license and may be
 used, copied, transmitted, or stored only in accord with that
 written license.
  
 The following legend is applicable only to US Government
 contracts under FAR:
  
                    RESTRICTED RIGHTS LEGEND
  
 Use, reproduction and disclosure by the US Government is
 subject to restrictions as set forth in subparagraphs (a)
 and (c) of the Commercial Computer Software - Restricted
 Rights clause in FAR 52.227-19.
  
 Gaussian, Inc.
 340 Quinnipiac St., Bldg. 40, Wallingford CT 06492
  
  
 ---------------------------------------------------------------
 Warning -- This program may not be used in any manner that
 competes with the business of Gaussian, Inc. or will provide
 assistance to any competitor of Gaussian, Inc.  The licensee
 of this program is prohibited from giving any competitor of
 Gaussian, Inc. access to this program.  By using this program,
 the user acknowledges that Gaussian, Inc. is engaged in the
 business of creating and licensing software in the field of
 computational chemistry and represents and warrants to the
 licensee that it is not a competitor of Gaussian, Inc. and that
 it will not use this program in any manner prohibited above.
 ---------------------------------------------------------------
  

 Cite this work as:
 Gaussian 09, Revision D.01,
 M. J. Frisch, G. W. Trucks, H. B. Schlegel, G. E. Scuseria, 
 M. A. Robb, J. R. Cheeseman, G. Scalmani, V. Barone, B. Mennucci, 
 G. A. Petersson, H. Nakatsuji, M. Caricato, X. Li, H. P. Hratchian, 
 A. F. Izmaylov, J. Bloino, G. Zheng, J. L. Sonnenberg, M. Hada, 
 M. Ehara, K. Toyota, R. Fukuda, J. Hasegawa, M. Ishida, T. Nakajima, 
 Y. Honda, O. Kitao, H. Nakai, T. Vreven, J. A. Montgomery, Jr., 
 J. E. Peralta, F. Ogliaro, M. Bearpark, J. J. Heyd, E. Brothers, 
 K. N. Kudin, V. N. Staroverov, T. Keith, R. Kobayashi, J. Normand, 
 K. Raghavachari, A. Rendell, J. C. Burant, S. S. Iyengar, J. Tomasi, 
 M. Cossi, N. Rega, J. M. Millam, M. Klene, J. E. Knox, J. B. Cross, 
 V. Bakken, C. Adamo, J. Jaramillo, R. Gomperts, R. E. Stratmann, 
 O. Yazyev, A. J. Austin, R. Cammi, C. Pomelli, J. W. Ochterski, 
 R. L. Martin, K. Morokuma, V. G. Zakrzewski, G. A. Voth, 
 P. Salvador, J. J. Dannenberg, S. Dapprich, A. D. Daniels, 
 O. Farkas, J. B. Foresman, J. V. Ortiz, J. Cioslowski, 
 and D. J. Fox, Gaussian, Inc., Wallingford CT, 2013.
 
 ******************************************
 Gaussian 09:  ES64L-G09RevD.01 24-Apr-2013
                 4-Mar-2017 
 ******************************************
 %mem=5000MB
 %Nprocshared=6
 Will use up to    6 processors via shared memory.
 %chk=gwp18_V1_dd_data.chk
 ------------------------------------------
 #P UHF/6-31g* IOP(7/33=1) IOP(7/8=11) Freq
 ------------------------------------------
 1/10=4,30=1,38=1/1,3;
 2/12=2,17=6,18=5,40=1/2;
 3/5=1,6=6,7=1,11=2,16=1,25=1,30=1,71=2,116=2,140=1/1,2,3;
 4//1;
 5/5=2,38=5,98=1/2;
 8/6=4,10=90,11=11/1;
 10/13=10,15=4/2;
 11/6=3,8=1,9=11,15=111,16=1/1,2,10;
 10/6=1/2;
 6/7=2,8=2,9=2,10=2,18=1,28=1/1;
 7/8=11,10=1,25=1,33=1/1,2,3,16;
 1/10=4,30=1/3;
 99//99;
 Leave Link    1 at Sat Mar  4 13:45:35 2017, MaxMem=   655360000 cpu:         0.2
 (Enter /mnt/software/gaussian/g09/l101.exe)
 -----------------
 Distorted Ethanol
 -----------------
 Symbolic Z-matrix:
 Charge =  1 Multiplicity = 2
 6                    -0.09037   5.54923  -0.95958 
 9                     0.75824   4.80871  -0.48618 
 9                     0.19112   6.75906  -0.85417 
 9                    -2.74328  -9.99549   3.05763 
 9                    -0.51667   5.27019  -2.08436 
 
 NAtoms=      5 NQM=        5 NQMF=       0 NMMI=      0 NMMIF=      0
                NMic=       0 NMicF=      0.
                    Isotopes and Nuclear Properties:
 (Nuclear quadrupole moments (NQMom) in fm**2, nuclear magnetic moments (NMagM)
  in nuclear magnetons)

  Atom         1           2           3           4           5
 IAtWgt=          12          19          19          19          19
 AtmWgt=  12.0000000  18.9984033  18.9984033  18.9984033  18.9984033
 NucSpn=           0           1           1           1           1
 AtZEff=   0.0000000   0.0000000   0.0000000   0.0000000   0.0000000
 NQMom=    0.0000000   0.0000000   0.0000000   0.0000000   0.0000000
 NMagM=    0.0000000   2.6288670   2.6288670   2.6288670   2.6288670
 AtZNuc=   6.0000000   9.0000000   9.0000000   9.0000000   9.0000000
 Leave Link  101 at Sat Mar  4 13:45:35 2017, MaxMem=   655360000 cpu:         0.4
 (Enter /mnt/software/gaussian/g09/l103.exe)

 GradGradGradGradGradGradGradGradGradGradGradGradGradGradGradGradGradGrad
 Berny optimization.
 Initialization pass.
 Trust Radius=3.00D-01 FncErr=1.00D-07 GrdErr=1.00D-07
 Number of steps in this run=      2 maximum allowed number of steps=      2.
 GradGradGradGradGradGradGradGradGradGradGradGradGradGradGradGradGradGrad

 Leave Link  103 at Sat Mar  4 13:45:35 2017, MaxMem=   655360000 cpu:         0.1
 (Enter /mnt/software/gaussian/g09/l202.exe)
                          Input orientation:                          
 ---------------------------------------------------------------------
 Center     Atomic      Atomic             Coordinates (Angstroms)
 Number     Number       Type             X           Y           Z
 ---------------------------------------------------------------------
      1          6           0       -0.090372    5.549234   -0.959576
      2          9           0        0.758240    4.808708   -0.486180
      3          9           0        0.191123    6.759064   -0.854172
      4          9           0       -2.743283   -9.995487    3.057634
      5          9           0       -0.516667    5.270188   -2.084359
 ---------------------------------------------------------------------
                    Distance matrix (angstroms):
                    1          2          3          4          5
     1  C    0.000000
     2  F    1.221730   0.000000
     3  F    1.246611   2.064202   0.000000
     4  F   16.273115  15.619970  17.453594   0.000000
     5  F    1.234800   2.095836   2.056959  16.261573   0.000000
 Stoichiometry    CF4(1+,2)
 Framework group  C1[X(CF4)]
 Deg. of freedom     9
 Full point group                 C1      NOp   1
 Largest Abelian subgroup         C1      NOp   1
 Largest concise Abelian subgroup C1      NOp   1
                         Standard orientation:                         
 ---------------------------------------------------------------------
 Center     Atomic      Atomic             Coordinates (Angstroms)
 Number     Number       Type             X           Y           Z
 ---------------------------------------------------------------------
      1          6           0       -3.392836    0.000391   -0.205150
      2          9           0       -2.712858   -0.804606    0.413102
      3          9           0       -4.566600   -0.377492   -0.388237
      4          9           0       12.879498    0.002429   -0.045797
      5          9           0       -3.338148    1.179408    0.157699
 ---------------------------------------------------------------------
 Rotational constants (GHZ):     10.4080754      0.1249578      0.1239066
 Leave Link  202 at Sat Mar  4 13:45:35 2017, MaxMem=   655360000 cpu:         0.0
 (Enter /mnt/software/gaussian/g09/l301.exe)
 Standard basis: 6-31G(d) (6D, 7F)
 Ernie: Thresh=  0.10000D-02 Tol=  0.10000D-05 Strict=F.
 There are    75 symmetry adapted cartesian basis functions of A   symmetry.
 There are    75 symmetry adapted basis functions of A   symmetry.
    75 basis functions,   140 primitive gaussians,    75 cartesian basis functions
    21 alpha electrons       20 beta electrons
       nuclear repulsion energy       141.1007437624 Hartrees.
 IExCor=    0 DFT=F Ex=HF Corr=None ExCW=0 ScaHFX=  1.000000
 ScaDFX=  1.000000  1.000000  1.000000  1.000000 ScalE2=  1.000000  1.000000
 IRadAn=      0 IRanWt=     -1 IRanGd=            0 ICorTp=0 IEmpDi=  4
 NAtoms=    5 NActive=    5 NUniq=    5 SFac= 1.00D+00 NAtFMM=   60 NAOKFM=F Big=F
 Integral buffers will be    131072 words long.
 Raffenetti 2 integral format.
 Two-electron integral symmetry is turned on.
 Leave Link  301 at Sat Mar  4 13:45:35 2017, MaxMem=   655360000 cpu:         0.2
 (Enter /mnt/software/gaussian/g09/l302.exe)
 NPDir=0 NMtPBC=     1 NCelOv=     1 NCel=       1 NClECP=     1 NCelD=      1
         NCelK=      1 NCelE2=     1 NClLst=     1 CellRange=     0.0.
 One-electron integrals computed using PRISM.
 NBasis=    75 RedAO= T EigKep=  3.31D-03  NBF=    75
 NBsUse=    75 1.00D-06 EigRej= -1.00D+00 NBFU=    75
 Leave Link  302 at Sat Mar  4 13:45:35 2017, MaxMem=   655360000 cpu:         0.8
 (Enter /mnt/software/gaussian/g09/l303.exe)
 DipDrv:  MaxL=1.
 Leave Link  303 at Sat Mar  4 13:45:35 2017, MaxMem=   655360000 cpu:         0.1
 (Enter /mnt/software/gaussian/g09/l401.exe)
 ExpMin= 1.69D-01 ExpMax= 7.00D+03 ExpMxC= 1.05D+03 IAcc=1 IRadAn=         1 AccDes= 0.00D+00
 Harris functional with IExCor=  205 and IRadAn=       1 diagonalized for initial guess.
 HarFok:  IExCor=  205 AccDes= 0.00D+00 IRadAn=         1 IDoV= 1 UseB2=F ITyADJ=14
 ICtDFT=  3500011 ScaDFX=  1.000000  1.000000  1.000000  1.000000
 FoFCou: FMM=F IPFlag=           0 FMFlag=      100000 FMFlg1=           0
         NFxFlg=           0 DoJE=T BraDBF=F KetDBF=T FulRan=T
         wScrn=  0.000000 ICntrl=     500 IOpCl=  0 I1Cent=   200000004 NGrid=           0
         NMat0=    1 NMatS0=      1 NMatT0=    0 NMatD0=    1 NMtDS0=    0 NMtDT0=    0
 Petite list used in FoFCou.
 Harris En= -435.010641348834    
 JPrj=0 DoOrth=F DoCkMO=F.
 Initial guess <Sx>= 0.0000 <Sy>= 0.0000 <Sz>= 0.5000 <S**2>= 0.7500 S= 0.5000
 Leave Link  401 at Sat Mar  4 13:45:35 2017, MaxMem=   655360000 cpu:         0.8
 (Enter /mnt/software/gaussian/g09/l502.exe)
 UHF open shell SCF:
 Using DIIS extrapolation, IDIIS=  1040.
 Integral symmetry usage will be decided dynamically.
 Keep R1 and R2 ints in memory in canonical form, NReq=8999644.
 IVT=       36430 IEndB=       36430 NGot=   655360000 MDV=   647198221
 LenX=   647198221 LenY=   647192155
 Requested convergence on RMS density matrix=1.00D-08 within 128 cycles.
 Requested convergence on MAX density matrix=1.00D-06.
 Requested convergence on             energy=1.00D-06.
 No special actions if energy rises.
 FoFCou: FMM=F IPFlag=           0 FMFlag=           0 FMFlg1=           0
         NFxFlg=           0 DoJE=F BraDBF=F KetDBF=F FulRan=T
         wScrn=  0.000000 ICntrl=     600 IOpCl=  0 I1Cent=           0 NGrid=           0
         NMat0=    1 NMatS0=   2850 NMatT0=    0 NMatD0=    1 NMtDS0=    0 NMtDT0=    0
 Symmetry not used in FoFCou.

 Cycle   1  Pass 1  IDiag  1:
 E= -435.045404882345    
 DIIS: error= 7.71D-02 at cycle   1 NSaved=   1.
 NSaved= 1 IEnMin= 1 EnMin= -435.045404882345     IErMin= 1 ErrMin= 7.71D-02
 ErrMax= 7.71D-02  0.00D+00 EMaxC= 1.00D-01 BMatC= 1.00D+00 BMatP= 1.00D+00
 IDIUse=3 WtCom= 2.29D-01 WtEn= 7.71D-01
 Coeff-Com:  0.100D+01
 Coeff-En:   0.100D+01
 Coeff:      0.100D+01
 Gap=     0.488 Goal=   None    Shift=    0.000
 Gap=     0.788 Goal=   None    Shift=    0.000
 GapD=    0.488 DampG=2.000 DampE=0.500 DampFc=1.0000 IDamp=-1.
 RMSDP=3.86D-03 MaxDP=6.22D-02              OVMax= 5.45D-02

 Cycle   2  Pass 1  IDiag  1:
 E= -435.113683058308     Delta-E=       -0.068278175963 Rises=F Damp=F
 DIIS: error= 1.43D-02 at cycle   2 NSaved=   2.
 NSaved= 2 IEnMin= 2 EnMin= -435.113683058308     IErMin= 2 ErrMin= 1.43D-02
 ErrMax= 1.43D-02  0.00D+00 EMaxC= 1.00D-01 BMatC= 5.94D-02 BMatP= 1.00D+00
 IDIUse=3 WtCom= 8.57D-01 WtEn= 1.43D-01
 Coeff-Com:  0.858D-01 0.914D+00
 Coeff-En:   0.000D+00 0.100D+01
 Coeff:      0.735D-01 0.926D+00
 Gap=     0.459 Goal=   None    Shift=    0.000
 Gap=     0.413 Goal=   None    Shift=    0.000
 RMSDP=1.37D-03 MaxDP=2.43D-02 DE=-6.83D-02 OVMax= 4.73D-02

 Cycle   3  Pass 1  IDiag  1:
 E= -435.122515700102     Delta-E=       -0.008832641794 Rises=F Damp=F
 DIIS: error= 6.71D-03 at cycle   3 NSaved=   3.
 NSaved= 3 IEnMin= 3 EnMin= -435.122515700102     IErMin= 3 ErrMin= 6.71D-03
 ErrMax= 6.71D-03  0.00D+00 EMaxC= 1.00D-01 BMatC= 1.78D-02 BMatP= 5.94D-02
 IDIUse=3 WtCom= 9.33D-01 WtEn= 6.71D-02
 Coeff-Com: -0.243D-01 0.329D+00 0.695D+00
 Coeff-En:   0.000D+00 0.000D+00 0.100D+01
 Coeff:     -0.227D-01 0.307D+00 0.716D+00
 Gap=     0.450 Goal=   None    Shift=    0.000
 Gap=     0.402 Goal=   None    Shift=    0.000
 RMSDP=4.43D-04 MaxDP=9.72D-03 DE=-8.83D-03 OVMax= 9.78D-03

 Cycle   4  Pass 1  IDiag  1:
 E= -435.125261775190     Delta-E=       -0.002746075088 Rises=F Damp=F
 DIIS: error= 1.21D-03 at cycle   4 NSaved=   4.
 NSaved= 4 IEnMin= 4 EnMin= -435.125261775190     IErMin= 4 ErrMin= 1.21D-03
 ErrMax= 1.21D-03  0.00D+00 EMaxC= 1.00D-01 BMatC= 3.32D-04 BMatP= 1.78D-02
 IDIUse=3 WtCom= 9.88D-01 WtEn= 1.21D-02
 Coeff-Com: -0.357D-02-0.604D-01-0.514D-01 0.112D+01
 Coeff-En:   0.000D+00 0.000D+00 0.000D+00 0.100D+01
 Coeff:     -0.352D-02-0.597D-01-0.508D-01 0.111D+01
 Gap=     0.451 Goal=   None    Shift=    0.000
 Gap=     0.401 Goal=   None    Shift=    0.000
 RMSDP=1.39D-04 MaxDP=2.00D-03 DE=-2.75D-03 OVMax= 4.29D-03

 Cycle   5  Pass 1  IDiag  1:
 E= -435.125404334808     Delta-E=       -0.000142559618 Rises=F Damp=F
 DIIS: error= 4.60D-04 at cycle   5 NSaved=   5.
 NSaved= 5 IEnMin= 5 EnMin= -435.125404334808     IErMin= 5 ErrMin= 4.60D-04
 ErrMax= 4.60D-04  0.00D+00 EMaxC= 1.00D-01 BMatC= 3.71D-05 BMatP= 3.32D-04
 IDIUse=3 WtCom= 9.95D-01 WtEn= 4.60D-03
 Coeff-Com:  0.350D-02-0.276D-01-0.712D-01-0.108D+00 0.120D+01
 Coeff-En:   0.000D+00 0.000D+00 0.000D+00 0.000D+00 0.100D+01
 Coeff:      0.348D-02-0.275D-01-0.709D-01-0.108D+00 0.120D+01
 Gap=     0.452 Goal=   None    Shift=    0.000
 Gap=     0.401 Goal=   None    Shift=    0.000
 RMSDP=5.54D-05 MaxDP=9.39D-04 DE=-1.43D-04 OVMax= 1.88D-03

 Cycle   6  Pass 1  IDiag  1:
 E= -435.125423266455     Delta-E=       -0.000018931648 Rises=F Damp=F
 DIIS: error= 1.17D-04 at cycle   6 NSaved=   6.
 NSaved= 6 IEnMin= 6 EnMin= -435.125423266455     IErMin= 6 ErrMin= 1.17D-04
 ErrMax= 1.17D-04  0.00D+00 EMaxC= 1.00D-01 BMatC= 1.67D-06 BMatP= 3.71D-05
 IDIUse=3 WtCom= 9.99D-01 WtEn= 1.17D-03
 Coeff-Com: -0.678D-03 0.959D-02 0.204D-01-0.307D-01-0.303D+00 0.130D+01
 Coeff-En:   0.000D+00 0.000D+00 0.000D+00 0.000D+00 0.000D+00 0.100D+01
 Coeff:     -0.677D-03 0.958D-02 0.204D-01-0.307D-01-0.303D+00 0.130D+01
 Gap=     0.453 Goal=   None    Shift=    0.000
 Gap=     0.401 Goal=   None    Shift=    0.000
 RMSDP=1.23D-05 MaxDP=2.53D-04 DE=-1.89D-05 OVMax= 4.17D-04

 Cycle   7  Pass 1  IDiag  1:
 E= -435.125424080186     Delta-E=       -0.000000813730 Rises=F Damp=F
 DIIS: error= 3.60D-05 at cycle   7 NSaved=   7.
 NSaved= 7 IEnMin= 7 EnMin= -435.125424080186     IErMin= 7 ErrMin= 3.60D-05
 ErrMax= 3.60D-05  0.00D+00 EMaxC= 1.00D-01 BMatC= 1.27D-07 BMatP= 1.67D-06
 IDIUse=1 WtCom= 1.00D+00 WtEn= 0.00D+00
 Coeff-Com: -0.255D-03 0.277D-02 0.602D-02 0.662D-03-0.101D+00 0.209D+00
 Coeff-Com:  0.882D+00
 Coeff:     -0.255D-03 0.277D-02 0.602D-02 0.662D-03-0.101D+00 0.209D+00
 Coeff:      0.882D+00
 Gap=     0.453 Goal=   None    Shift=    0.000
 Gap=     0.401 Goal=   None    Shift=    0.000
 RMSDP=2.02D-06 MaxDP=5.03D-05 DE=-8.14D-07 OVMax= 4.65D-05

 Cycle   8  Pass 1  IDiag  1:
 E= -435.125424113243     Delta-E=       -0.000000033057 Rises=F Damp=F
 DIIS: error= 9.34D-06 at cycle   8 NSaved=   8.
 NSaved= 8 IEnMin= 8 EnMin= -435.125424113243     IErMin= 8 ErrMin= 9.34D-06
 ErrMax= 9.34D-06  0.00D+00 EMaxC= 1.00D-01 BMatC= 1.70D-08 BMatP= 1.27D-07
 IDIUse=1 WtCom= 1.00D+00 WtEn= 0.00D+00
 Coeff-Com:  0.774D-04-0.115D-02-0.267D-02 0.445D-02 0.366D-01-0.167D+00
 Coeff-Com:  0.281D-01 0.110D+01
 Coeff:      0.774D-04-0.115D-02-0.267D-02 0.445D-02 0.366D-01-0.167D+00
 Coeff:      0.281D-01 0.110D+01
 Gap=     0.453 Goal=   None    Shift=    0.000
 Gap=     0.401 Goal=   None    Shift=    0.000
 RMSDP=9.88D-07 MaxDP=1.80D-05 DE=-3.31D-08 OVMax= 1.92D-05

 Cycle   9  Pass 1  IDiag  1:
 E= -435.125424119110     Delta-E=       -0.000000005867 Rises=F Damp=F
 DIIS: error= 3.75D-06 at cycle   9 NSaved=   9.
 NSaved= 9 IEnMin= 9 EnMin= -435.125424119110     IErMin= 9 ErrMin= 3.75D-06
 ErrMax= 3.75D-06  0.00D+00 EMaxC= 1.00D-01 BMatC= 1.73D-09 BMatP= 1.70D-08
 IDIUse=1 WtCom= 1.00D+00 WtEn= 0.00D+00
 Coeff-Com:  0.361D-04-0.462D-03-0.105D-02 0.775D-03 0.162D-01-0.520D-01
 Coeff-Com: -0.745D-01 0.228D+00 0.883D+00
 Coeff:      0.361D-04-0.462D-03-0.105D-02 0.775D-03 0.162D-01-0.520D-01
 Coeff:     -0.745D-01 0.228D+00 0.883D+00
 Gap=     0.453 Goal=   None    Shift=    0.000
 Gap=     0.401 Goal=   None    Shift=    0.000
 RMSDP=2.55D-07 MaxDP=6.25D-06 DE=-5.87D-09 OVMax= 9.62D-06

 Cycle  10  Pass 1  IDiag  1:
 E= -435.125424119678     Delta-E=       -0.000000000568 Rises=F Damp=F
 DIIS: error= 3.58D-06 at cycle  10 NSaved=  10.
 NSaved=10 IEnMin=10 EnMin= -435.125424119678     IErMin=10 ErrMin= 3.58D-06
 ErrMax= 3.58D-06  0.00D+00 EMaxC= 1.00D-01 BMatC= 2.10D-10 BMatP= 1.73D-09
 IDIUse=1 WtCom= 1.00D+00 WtEn= 0.00D+00
 Coeff-Com: -0.945D-05 0.141D-03 0.322D-03-0.533D-03-0.444D-02 0.190D-01
 Coeff-Com:  0.286D-02-0.115D+00-0.859D-01 0.118D+01
 Coeff:     -0.945D-05 0.141D-03 0.322D-03-0.533D-03-0.444D-02 0.190D-01
 Coeff:      0.286D-02-0.115D+00-0.859D-01 0.118D+01
 Gap=     0.453 Goal=   None    Shift=    0.000
 Gap=     0.401 Goal=   None    Shift=    0.000
 RMSDP=1.36D-07 MaxDP=5.12D-06 DE=-5.68D-10 OVMax= 1.22D-05

 Cycle  11  Pass 1  IDiag  1:
 E= -435.125424119899     Delta-E=       -0.000000000221 Rises=F Damp=F
 DIIS: error= 3.58D-06 at cycle  11 NSaved=  11.
 NSaved=11 IEnMin=11 EnMin= -435.125424119899     IErMin=11 ErrMin= 3.58D-06
 ErrMax= 3.58D-06  0.00D+00 EMaxC= 1.00D-01 BMatC= 1.31D-10 BMatP= 2.10D-10
 IDIUse=1 WtCom= 1.00D+00 WtEn= 0.00D+00
 Coeff-Com:  0.148D-05-0.256D-04-0.585D-04 0.137D-03 0.733D-03-0.376D-02
 Coeff-Com:  0.132D-02 0.290D-01-0.156D-01-0.383D+00 0.137D+01
 Coeff:      0.148D-05-0.256D-04-0.585D-04 0.137D-03 0.733D-03-0.376D-02
 Coeff:      0.132D-02 0.290D-01-0.156D-01-0.383D+00 0.137D+01
 Gap=     0.453 Goal=   None    Shift=    0.000
 Gap=     0.401 Goal=   None    Shift=    0.000
 RMSDP=1.26D-07 MaxDP=5.32D-06 DE=-2.21D-10 OVMax= 1.36D-05

 Cycle  12  Pass 1  IDiag  1:
 E= -435.125424120105     Delta-E=       -0.000000000206 Rises=F Damp=F
 DIIS: error= 3.58D-06 at cycle  12 NSaved=  12.
 NSaved=12 IEnMin=12 EnMin= -435.125424120105     IErMin=12 ErrMin= 3.58D-06
 ErrMax= 3.58D-06  0.00D+00 EMaxC= 1.00D-01 BMatC= 1.26D-10 BMatP= 1.31D-10
 IDIUse=1 WtCom= 1.00D+00 WtEn= 0.00D+00
 Coeff-Com:  0.300D-06-0.421D-05-0.752D-05 0.977D-05 0.118D-03-0.444D-03
 Coeff-Com: -0.420D-03 0.254D-02 0.600D-02-0.461D-02-0.250D+00 0.125D+01
 Coeff:      0.300D-06-0.421D-05-0.752D-05 0.977D-05 0.118D-03-0.444D-03
 Coeff:     -0.420D-03 0.254D-02 0.600D-02-0.461D-02-0.250D+00 0.125D+01
 Gap=     0.453 Goal=   None    Shift=    0.000
 Gap=     0.401 Goal=   None    Shift=    0.000
 RMSDP=1.16D-07 MaxDP=4.93D-06 DE=-2.06D-10 OVMax= 1.27D-05

 Cycle  13  Pass 1  IDiag  1:
 E= -435.125424120298     Delta-E=       -0.000000000193 Rises=F Damp=F
 DIIS: error= 3.58D-06 at cycle  13 NSaved=  13.
 NSaved=13 IEnMin=13 EnMin= -435.125424120298     IErMin=13 ErrMin= 3.58D-06
 ErrMax= 3.58D-06  0.00D+00 EMaxC= 1.00D-01 BMatC= 1.26D-10 BMatP= 1.26D-10
 IDIUse=1 WtCom= 1.00D+00 WtEn= 0.00D+00
 Coeff-Com: -0.146D-06 0.231D-05 0.523D-05-0.106D-04-0.663D-04 0.323D-03
 Coeff-Com: -0.585D-04-0.229D-02-0.557D-03 0.287D-01-0.542D-01-0.266D+00
 Coeff-Com:  0.129D+01
 Coeff:     -0.146D-06 0.231D-05 0.523D-05-0.106D-04-0.663D-04 0.323D-03
 Coeff:     -0.585D-04-0.229D-02-0.557D-03 0.287D-01-0.542D-01-0.266D+00
 Coeff:      0.129D+01
 Gap=     0.453 Goal=   None    Shift=    0.000
 Gap=     0.401 Goal=   None    Shift=    0.000
 RMSDP=1.21D-07 MaxDP=5.16D-06 DE=-1.93D-10 OVMax= 1.33D-05

 Cycle  14  Pass 1  IDiag  1:
 E= -435.125424120500     Delta-E=       -0.000000000202 Rises=F Damp=F
 DIIS: error= 3.58D-06 at cycle  14 NSaved=  14.
 NSaved=14 IEnMin=14 EnMin= -435.125424120500     IErMin=14 ErrMin= 3.58D-06
 ErrMax= 3.58D-06  0.00D+00 EMaxC= 1.00D-01 BMatC= 1.26D-10 BMatP= 1.26D-10
 IDIUse=1 WtCom= 1.00D+00 WtEn= 0.00D+00
 Coeff-Com: -0.278D-07 0.395D-06 0.571D-06-0.813D-06-0.964D-05 0.353D-04
 Coeff-Com:  0.372D-04-0.169D-03-0.790D-03-0.393D-03 0.341D-01-0.149D+00
 Coeff-Com: -0.413D-01 0.116D+01
 Coeff:     -0.278D-07 0.395D-06 0.571D-06-0.813D-06-0.964D-05 0.353D-04
 Coeff:      0.372D-04-0.169D-03-0.790D-03-0.393D-03 0.341D-01-0.149D+00
 Coeff:     -0.413D-01 0.116D+01
 Gap=     0.453 Goal=   None    Shift=    0.000
 Gap=     0.401 Goal=   None    Shift=    0.000
 RMSDP=1.15D-07 MaxDP=4.89D-06 DE=-2.02D-10 OVMax= 1.26D-05

 Cycle  15  Pass 1  IDiag  1:
 E= -435.125424120691     Delta-E=       -0.000000000191 Rises=F Damp=F
 DIIS: error= 3.58D-06 at cycle  15 NSaved=  15.
 NSaved=15 IEnMin=15 EnMin= -435.125424120691     IErMin=15 ErrMin= 3.58D-06
 ErrMax= 3.58D-06  0.00D+00 EMaxC= 1.00D-01 BMatC= 1.26D-10 BMatP= 1.26D-10
 IDIUse=1 WtCom= 1.00D+00 WtEn= 0.00D+00
 Coeff-Com:  0.236D-06-0.363D-05-0.815D-05 0.159D-04 0.104D-03-0.500D-03
 Coeff-Com:  0.560D-04 0.350D-02 0.154D-02-0.421D-01 0.536D-01 0.520D+00
 Coeff-Com: -0.195D+01-0.923D+00 0.333D+01
 Coeff:      0.236D-06-0.363D-05-0.815D-05 0.159D-04 0.104D-03-0.500D-03
 Coeff:      0.560D-04 0.350D-02 0.154D-02-0.421D-01 0.536D-01 0.520D+00
 Coeff:     -0.195D+01-0.923D+00 0.333D+01
 Gap=     0.453 Goal=   None    Shift=    0.000
 Gap=     0.401 Goal=   None    Shift=    0.000
 RMSDP=4.65D-07 MaxDP=1.98D-05 DE=-1.91D-10 OVMax= 5.11D-05

 Cycle  16  Pass 1  IDiag  1:
 E= -435.125424121464     Delta-E=       -0.000000000774 Rises=F Damp=F
 DIIS: error= 3.58D-06 at cycle  16 NSaved=  16.
 NSaved=16 IEnMin=16 EnMin= -435.125424121464     IErMin=16 ErrMin= 3.58D-06
 ErrMax= 3.58D-06  0.00D+00 EMaxC= 1.00D-01 BMatC= 1.26D-10 BMatP= 1.26D-10
 IDIUse=1 WtCom= 1.00D+00 WtEn= 0.00D+00
 Large coefficients: NSaved= 16 BigCof=    0.00 CofMax=   10.00 Det=-1.58D-15
 Inversion failed.  Reducing to 15 matrices.
 Large coefficients: NSaved= 15 BigCof=   11.49 CofMax=   10.00 Det=-9.87D-16
 Inversion failed.  Reducing to 14 matrices.
 Large coefficients: NSaved= 14 BigCof=   11.06 CofMax=   10.00 Det=-1.08D-15
 Inversion failed.  Reducing to 13 matrices.
 Coeff-Com: -0.572D-05 0.192D-04 0.223D-04-0.917D-04-0.109D-02 0.257D-02
 Coeff-Com:  0.229D-01-0.113D+00-0.438D+00 0.381D+01-0.374D+01-0.690D+01
 Coeff-Com:  0.836D+01
 Coeff:     -0.572D-05 0.192D-04 0.223D-04-0.917D-04-0.109D-02 0.257D-02
 Coeff:      0.229D-01-0.113D+00-0.438D+00 0.381D+01-0.374D+01-0.690D+01
 Coeff:      0.836D+01
 Gap=     0.453 Goal=   None    Shift=    0.000
 Gap=     0.401 Goal=   None    Shift=    0.000
 RMSDP=3.23D-06 MaxDP=1.38D-04 DE=-7.74D-10 OVMax= 3.55D-04

 Cycle  17  Pass 1  IDiag  1:
 E= -435.125424126828     Delta-E=       -0.000000005364 Rises=F Damp=F
 DIIS: error= 3.58D-06 at cycle  17 NSaved=  14.
 NSaved=14 IEnMin=14 EnMin= -435.125424126828     IErMin=14 ErrMin= 3.58D-06
 ErrMax= 3.58D-06  0.00D+00 EMaxC= 1.00D-01 BMatC= 1.26D-10 BMatP= 1.26D-10
 IDIUse=1 WtCom= 1.00D+00 WtEn= 0.00D+00
 Large coefficients: NSaved= 14 BigCof=   17.55 CofMax=   10.00 Det=-1.16D-15
 Inversion failed.  Reducing to 13 matrices.
 Large coefficients: NSaved= 13 BigCof=   17.21 CofMax=   10.00 Det=-1.23D-15
 Inversion failed.  Reducing to 12 matrices.
 Large coefficients: NSaved= 12 BigCof=   16.98 CofMax=   10.00 Det=-1.25D-15
 Inversion failed.  Reducing to 11 matrices.
 Large coefficients: NSaved= 11 BigCof=   14.97 CofMax=   10.00 Det=-1.32D-15
 Inversion failed.  Reducing to 10 matrices.
 Large coefficients: NSaved= 10 BigCof=   14.11 CofMax=   10.00 Det=-1.33D-15
 Inversion failed.  Reducing to  9 matrices.
 Large coefficients: NSaved=  9 BigCof=   10.88 CofMax=   10.00 Det=-1.46D-15
 Inversion failed.  Reducing to  8 matrices.
 Large coefficients: NSaved=  8 BigCof=   10.77 CofMax=   10.00 Det=-1.47D-15
 Inversion failed.  Reducing to  7 matrices.
 Large coefficients: NSaved=  7 BigCof=   10.80 CofMax=   10.00 Det=-1.55D-15
 Inversion failed.  Reducing to  6 matrices.
 Large coefficients: NSaved=  6 BigCof=   10.89 CofMax=   10.00 Det=-1.57D-15
 Inversion failed.  Reducing to  5 matrices.
 Large coefficients: NSaved=  5 BigCof=   12.32 CofMax=   10.00 Det=-2.10D-15
 Inversion failed.  Reducing to  4 matrices.
 Large coefficients: NSaved=  4 BigCof=   14.60 CofMax=   10.00 Det=-2.45D-15
 Inversion failed.  Reducing to  3 matrices.
 Coeff-Com:  0.679D+00-0.702D+01 0.734D+01
 Coeff:      0.679D+00-0.702D+01 0.734D+01
 Gap=     0.453 Goal=   None    Shift=    0.000
 Gap=     0.401 Goal=   None    Shift=    0.000
 RMSDP=2.03D-05 MaxDP=8.64D-04 DE=-5.36D-09 OVMax= 2.23D-03

 Cycle  18  Pass 1  IDiag  1:
 E= -435.125424160308     Delta-E=       -0.000000033480 Rises=F Damp=F
 DIIS: error= 3.55D-06 at cycle  18 NSaved=   4.
 NSaved= 4 IEnMin= 4 EnMin= -435.125424160308     IErMin= 4 ErrMin= 3.55D-06
 ErrMax= 3.55D-06  0.00D+00 EMaxC= 1.00D-01 BMatC= 1.27D-10 BMatP= 1.26D-10
 IDIUse=1 WtCom= 1.00D+00 WtEn= 0.00D+00
 Coeff-Com:  0.131D+01-0.721D+01 0.677D+01 0.140D+00
 Coeff:      0.131D+01-0.721D+01 0.677D+01 0.140D+00
 Gap=     0.453 Goal=   None    Shift=    0.000
 Gap=     0.401 Goal=   None    Shift=    0.000
 RMSDP=1.13D-06 MaxDP=4.82D-05 DE=-3.35D-08 OVMax= 1.24D-04

 Cycle  19  Pass 1  IDiag  1:
 E= -435.125424162164     Delta-E=       -0.000000001855 Rises=F Damp=F
 DIIS: error= 3.55D-06 at cycle  19 NSaved=   5.
 NSaved= 5 IEnMin= 5 EnMin= -435.125424162164     IErMin= 5 ErrMin= 3.55D-06
 ErrMax= 3.55D-06  0.00D+00 EMaxC= 1.00D-01 BMatC= 1.27D-10 BMatP= 1.26D-10
 IDIUse=1 WtCom= 1.00D+00 WtEn= 0.00D+00
 Coeff-Com: -0.112D+01-0.286D+01 0.457D+01-0.907D+01 0.948D+01
 Coeff:     -0.112D+01-0.286D+01 0.457D+01-0.907D+01 0.948D+01
 Gap=     0.453 Goal=   None    Shift=    0.000
 Gap=     0.401 Goal=   None    Shift=    0.000
 RMSDP=1.11D-05 MaxDP=4.72D-04 DE=-1.86D-09 OVMax= 1.22D-03

 Cycle  20  Pass 1  IDiag  1:
 E= -435.125424180302     Delta-E=       -0.000000018139 Rises=F Damp=F
 DIIS: error= 3.53D-06 at cycle  20 NSaved=   6.
 NSaved= 6 IEnMin= 6 EnMin= -435.125424180302     IErMin= 6 ErrMin= 3.53D-06
 ErrMax= 3.53D-06  0.00D+00 EMaxC= 1.00D-01 BMatC= 1.27D-10 BMatP= 1.26D-10
 IDIUse=1 WtCom= 1.00D+00 WtEn= 0.00D+00
 Large coefficients: NSaved=  6 BigCof=   54.31 CofMax=   10.00 Det=-2.09D-15
 Inversion failed.  Reducing to  5 matrices.
 Large coefficients: NSaved=  5 BigCof=   17.60 CofMax=   10.00 Det=-6.94D-15
 Inversion failed.  Reducing to  4 matrices.
 Large coefficients: NSaved=  4 BigCof=   19.98 CofMax=   10.00 Det=-7.15D-15
 Inversion failed.  Reducing to  3 matrices.
 Large coefficients: NSaved=  3 BigCof=   22.59 CofMax=   10.00 Det=-7.25D-15
 Inversion failed.  Reducing to  2 matrices.
 Coeff-Com:  0.469D+00 0.531D+00
 Coeff:      0.469D+00 0.531D+00
 Gap=     0.453 Goal=   None    Shift=    0.000
 Gap=     0.401 Goal=   None    Shift=    0.000
 RMSDP=5.10D-06 MaxDP=2.18D-04 DE=-1.81D-08 OVMax= 5.61D-04

 Cycle  21  Pass 1  IDiag  1:
 E= -435.125424171952     Delta-E=        0.000000008351 Rises=F Damp=F
 DIIS: error= 3.54D-06 at cycle  21 NSaved=   3.
 NSaved= 3 IEnMin= 2 EnMin= -435.125424180302     IErMin= 2 ErrMin= 3.53D-06
 ErrMax= 3.54D-06  0.00D+00 EMaxC= 1.00D-01 BMatC= 1.23D-10 BMatP= 1.27D-10
 IDIUse=1 WtCom= 1.00D+00 WtEn= 0.00D+00
 Large coefficients: NSaved=  3 BigCof=   10.89 CofMax=   10.00 Det=-5.29D-14
 Inversion failed.  Reducing to  2 matrices.
 Coeff-Com:  0.100D+00 0.900D+00
 Coeff:      0.100D+00 0.900D+00
 Gap=     0.453 Goal=   None    Shift=    0.000
 Gap=     0.401 Goal=   None    Shift=    0.000
 RMSDP=5.97D-07 MaxDP=2.55D-05 DE= 8.35D-09 OVMax= 6.56D-05

 Cycle  22  Pass 1  IDiag  1:
 E= -435.125424172931     Delta-E=       -0.000000000979 Rises=F Damp=F
 DIIS: error= 3.54D-06 at cycle  22 NSaved=   3.
 NSaved= 3 IEnMin= 1 EnMin= -435.125424180302     IErMin= 1 ErrMin= 3.53D-06
 ErrMax= 3.54D-06  0.00D+00 EMaxC= 1.00D-01 BMatC= 1.23D-10 BMatP= 1.23D-10
 IDIUse=1 WtCom= 1.00D+00 WtEn= 0.00D+00
 Coeff-Com: -0.537D-01-0.303D-01 0.108D+01
 Coeff:     -0.537D-01-0.303D-01 0.108D+01
 Gap=     0.453 Goal=   None    Shift=    0.000
 Gap=     0.401 Goal=   None    Shift=    0.000
 RMSDP=1.39D-07 MaxDP=5.89D-06 DE=-9.79D-10 OVMax= 1.52D-05

 Cycle  23  Pass 1  IDiag  1:
 E= -435.125424172704     Delta-E=        0.000000000227 Rises=F Damp=F
 DIIS: error= 3.54D-06 at cycle  23 NSaved=   4.
 NSaved= 4 IEnMin= 1 EnMin= -435.125424180302     IErMin= 1 ErrMin= 3.53D-06
 ErrMax= 3.54D-06  0.00D+00 EMaxC= 1.00D-01 BMatC= 1.23D-10 BMatP= 1.23D-10
 IDIUse=1 WtCom= 1.00D+00 WtEn= 0.00D+00
 Coeff-Com:  0.109D+00-0.264D+00-0.540D+00 0.170D+01
 Coeff:      0.109D+00-0.264D+00-0.540D+00 0.170D+01
 Gap=     0.453 Goal=   None    Shift=    0.000
 Gap=     0.401 Goal=   None    Shift=    0.000
 RMSDP=6.36D-07 MaxDP=2.72D-05 DE= 2.27D-10 OVMax= 6.99D-05

 Cycle  24  Pass 1  IDiag  1:
 E= -435.125424173746     Delta-E=       -0.000000001042 Rises=F Damp=F
 DIIS: error= 3.53D-06 at cycle  24 NSaved=   5.
 NSaved= 5 IEnMin= 1 EnMin= -435.125424180302     IErMin= 1 ErrMin= 3.53D-06
 ErrMax= 3.53D-06  0.00D+00 EMaxC= 1.00D-01 BMatC= 1.22D-10 BMatP= 1.23D-10
 IDIUse=1 WtCom= 1.00D+00 WtEn= 0.00D+00
 Coeff-Com:  0.234D+00-0.101D+00-0.156D+01-0.293D+00 0.272D+01
 Coeff:      0.234D+00-0.101D+00-0.156D+01-0.293D+00 0.272D+01
 Gap=     0.453 Goal=   None    Shift=    0.000
 Gap=     0.401 Goal=   None    Shift=    0.000
 RMSDP=2.10D-06 MaxDP=8.96D-05 DE=-1.04D-09 OVMax= 2.31D-04

 Cycle  25  Pass 1  IDiag  1:
 E= -435.125424177183     Delta-E=       -0.000000003437 Rises=F Damp=F
 DIIS: error= 3.53D-06 at cycle  25 NSaved=   6.
 NSaved= 6 IEnMin= 1 EnMin= -435.125424180302     IErMin= 1 ErrMin= 3.53D-06
 ErrMax= 3.53D-06  0.00D+00 EMaxC= 1.00D-01 BMatC= 1.22D-10 BMatP= 1.22D-10
 IDIUse=1 WtCom= 1.00D+00 WtEn= 0.00D+00
 Large coefficients: NSaved=  6 BigCof=   36.72 CofMax=   10.00 Det=-2.22D-15
 Inversion failed.  Reducing to  5 matrices.
 Large coefficients: NSaved=  5 BigCof=   11.62 CofMax=   10.00 Det=-4.92D-15
 Inversion failed.  Reducing to  4 matrices.
 Coeff-Com: -0.983D-01 0.142D+01-0.476D+01 0.444D+01
 Coeff:     -0.983D-01 0.142D+01-0.476D+01 0.444D+01
 Gap=     0.453 Goal=   None    Shift=    0.000
 Gap=     0.401 Goal=   None    Shift=    0.000
 RMSDP=6.20D-06 MaxDP=2.65D-04 DE=-3.44D-09 OVMax= 6.82D-04

 Cycle  26  Pass 1  IDiag  1:
 E= -435.125424187329     Delta-E=       -0.000000010146 Rises=F Damp=F
 DIIS: error= 3.52D-06 at cycle  26 NSaved=   5.
 NSaved= 5 IEnMin= 5 EnMin= -435.125424187329     IErMin= 5 ErrMin= 3.52D-06
 ErrMax= 3.52D-06  0.00D+00 EMaxC= 1.00D-01 BMatC= 1.22D-10 BMatP= 1.22D-10
 IDIUse=1 WtCom= 1.00D+00 WtEn= 0.00D+00
 Large coefficients: NSaved=  5 BigCof=   43.69 CofMax=   10.00 Det=-2.30D-15
 Inversion failed.  Reducing to  4 matrices.
 Coeff-Com: -0.381D+00-0.879D+01 0.455D+01 0.562D+01
 Coeff:     -0.381D+00-0.879D+01 0.455D+01 0.562D+01
 Gap=     0.453 Goal=   None    Shift=    0.000
 Gap=     0.401 Goal=   None    Shift=    0.000
 RMSDP=4.64D-05 MaxDP=1.99D-03 DE=-1.01D-08 OVMax= 5.11D-03

 Cycle  27  Pass 1  IDiag  1:
 E= -435.125424262411     Delta-E=       -0.000000075082 Rises=F Damp=F
 DIIS: error= 3.45D-06 at cycle  27 NSaved=   5.
 NSaved= 5 IEnMin= 5 EnMin= -435.125424262411     IErMin= 5 ErrMin= 3.45D-06
 ErrMax= 3.45D-06  0.00D+00 EMaxC= 1.00D-01 BMatC= 2.16D-10 BMatP= 1.22D-10
 IDIUse=1 WtCom= 1.00D+00 WtEn= 0.00D+00
 Large coefficients: NSaved=  5 BigCof=   15.34 CofMax=   10.00 Det=-3.88D-15
 Inversion failed.  Reducing to  4 matrices.
 Coeff-Com: -0.166D+01-0.222D+01 0.456D+01 0.318D+00
 Coeff:     -0.166D+01-0.222D+01 0.456D+01 0.318D+00
 Gap=     0.453 Goal=   None    Shift=    0.000
 Gap=     0.401 Goal=   None    Shift=    0.000
 RMSDP=1.07D-05 MaxDP=4.60D-04 DE=-7.51D-08 OVMax= 1.18D-03

 Cycle  28  Pass 1  IDiag  1:
 E= -435.125424245213     Delta-E=        0.000000017198 Rises=F Damp=F
 DIIS: error= 3.47D-06 at cycle  28 NSaved=   5.
 NSaved= 5 IEnMin= 4 EnMin= -435.125424262411     IErMin= 4 ErrMin= 3.45D-06
 ErrMax= 3.47D-06  0.00D+00 EMaxC= 1.00D-01 BMatC= 1.26D-10 BMatP= 1.22D-10
 IDIUse=1 WtCom= 1.00D+00 WtEn= 0.00D+00
 Large coefficients: NSaved=  5 BigCof=   12.61 CofMax=   10.00 Det=-6.13D-14
 Inversion failed.  Reducing to  4 matrices.
 Coeff-Com:  0.942D+00-0.243D+01-0.117D+01 0.366D+01
 Coeff:      0.942D+00-0.243D+01-0.117D+01 0.366D+01
 Gap=     0.453 Goal=   None    Shift=    0.000
 Gap=     0.401 Goal=   None    Shift=    0.000
 RMSDP=3.65D-05 MaxDP=1.57D-03 DE= 1.72D-08 OVMax= 4.02D-03

 Cycle  29  Pass 1  IDiag  1:
 E= -435.125424303450     Delta-E=       -0.000000058237 Rises=F Damp=F
 DIIS: error= 3.41D-06 at cycle  29 NSaved=   5.
 NSaved= 5 IEnMin= 5 EnMin= -435.125424303450     IErMin= 5 ErrMin= 3.41D-06
 ErrMax= 3.41D-06  0.00D+00 EMaxC= 1.00D-01 BMatC= 2.51D-10 BMatP= 1.22D-10
 IDIUse=1 WtCom= 1.00D+00 WtEn= 0.00D+00
 Large coefficients: NSaved=  5 BigCof=   29.23 CofMax=   10.00 Det=-4.62D-14
 Inversion failed.  Reducing to  4 matrices.
 Large coefficients: NSaved=  4 BigCof=   19.46 CofMax=   10.00 Det=-8.35D-14
 Inversion failed.  Reducing to  3 matrices.
 Coeff-Com: -0.165D+01 0.162D+01 0.103D+01
 Coeff:     -0.165D+01 0.162D+01 0.103D+01
 Gap=     0.453 Goal=   None    Shift=    0.000
 Gap=     0.401 Goal=   None    Shift=    0.000
 RMSDP=1.65D-05 MaxDP=7.10D-04 DE=-5.82D-08 OVMax= 1.82D-03

 Cycle  30  Pass 1  IDiag  1:
 E= -435.125424277261     Delta-E=        0.000000026189 Rises=F Damp=F
 DIIS: error= 3.44D-06 at cycle  30 NSaved=   4.
 NSaved= 4 IEnMin= 3 EnMin= -435.125424303450     IErMin= 3 ErrMin= 3.41D-06
 ErrMax= 3.44D-06  0.00D+00 EMaxC= 1.00D-01 BMatC= 1.25D-10 BMatP= 1.26D-10
 IDIUse=1 WtCom= 1.00D+00 WtEn= 0.00D+00
 Large coefficients: NSaved=  4 BigCof=   10.16 CofMax=   10.00 Det=-8.26D-14
 Inversion failed.  Reducing to  3 matrices.
 Coeff-Com: -0.106D+01 0.114D+01 0.924D+00
 Coeff:     -0.106D+01 0.114D+01 0.924D+00
 Gap=     0.453 Goal=   None    Shift=    0.000
 Gap=     0.401 Goal=   None    Shift=    0.000
 RMSDP=2.87D-05 MaxDP=1.24D-03 DE= 2.62D-08 OVMax= 3.16D-03

 Cycle  31  Pass 1  IDiag  1:
 E= -435.125424322774     Delta-E=       -0.000000045514 Rises=F Damp=F
 DIIS: error= 3.39D-06 at cycle  31 NSaved=   4.
 NSaved= 4 IEnMin= 4 EnMin= -435.125424322774     IErMin= 4 ErrMin= 3.39D-06
 ErrMax= 3.39D-06  0.00D+00 EMaxC= 1.00D-01 BMatC= 1.19D-10 BMatP= 1.25D-10
 IDIUse=1 WtCom= 1.00D+00 WtEn= 0.00D+00
 Coeff-Com: -0.313D+01 0.788D+00-0.259D+01 0.592D+01
 Coeff:     -0.313D+01 0.788D+00-0.259D+01 0.592D+01
 Gap=     0.453 Goal=   None    Shift=    0.000
 Gap=     0.401 Goal=   None    Shift=    0.000
 RMSDP=1.83D-04 MaxDP=7.98D-03 DE=-4.55D-08 OVMax= 2.02D-02

 Cycle  32  Pass 1  IDiag  1:
 E= -435.125424593821     Delta-E=       -0.000000271046 Rises=F Damp=F
 DIIS: error= 2.73D-05 at cycle  32 NSaved=   5.
 NSaved= 5 IEnMin= 5 EnMin= -435.125424593821     IErMin= 4 ErrMin= 3.39D-06
 ErrMax= 2.73D-05  0.00D+00 EMaxC= 1.00D-01 BMatC= 2.40D-08 BMatP= 1.19D-10
 IDIUse=1 WtCom= 1.00D+00 WtEn= 0.00D+00
 Coeff-Com: -0.344D+01 0.790D+00-0.921D+00 0.450D+01 0.744D-01
 Coeff:     -0.344D+01 0.790D+00-0.921D+00 0.450D+01 0.744D-01
 Gap=     0.453 Goal=   None    Shift=    0.000
 Gap=     0.401 Goal=   None    Shift=    0.000
 RMSDP=2.23D-05 MaxDP=9.74D-04 DE=-2.71D-07 OVMax= 2.45D-03

 Cycle  33  Pass 1  IDiag  1:
 E= -435.125424564196     Delta-E=        0.000000029624 Rises=F Damp=F
 DIIS: error= 1.98D-05 at cycle  33 NSaved=   6.
 NSaved= 6 IEnMin= 5 EnMin= -435.125424593821     IErMin= 4 ErrMin= 3.39D-06
 ErrMax= 1.98D-05  0.00D+00 EMaxC= 1.00D-01 BMatC= 1.26D-08 BMatP= 1.19D-10
 IDIUse=1 WtCom= 1.00D+00 WtEn= 0.00D+00
 Large coefficients: NSaved=  6 BigCof=   19.79 CofMax=   10.00 Det=-1.69D-14
 Inversion failed.  Reducing to  5 matrices.
 Coeff-Com: -0.886D-01-0.732D+01 0.900D+01 0.563D+00-0.115D+01
 Coeff:     -0.886D-01-0.732D+01 0.900D+01 0.563D+00-0.115D+01
 Gap=     0.453 Goal=   None    Shift=    0.000
 Gap=     0.401 Goal=   None    Shift=    0.000
 RMSDP=3.26D-05 MaxDP=1.43D-03 DE= 2.96D-08 OVMax= 3.58D-03

 Cycle  34  Pass 1  IDiag  1:
 E= -435.125424515420     Delta-E=        0.000000048776 Rises=F Damp=F
 DIIS: error= 2.27D-05 at cycle  34 NSaved=   6.
 NSaved= 6 IEnMin= 4 EnMin= -435.125424593821     IErMin= 3 ErrMin= 3.39D-06
 ErrMax= 2.27D-05  0.00D+00 EMaxC= 1.00D-01 BMatC= 1.68D-08 BMatP= 1.19D-10
 IDIUse=1 WtCom= 1.00D+00 WtEn= 0.00D+00
 Large coefficients: NSaved=  6 BigCof=   19.38 CofMax=   10.00 Det=-1.80D-14
 Inversion failed.  Reducing to  5 matrices.
 Coeff-Com:  0.154D+01-0.901D+00-0.215D+00 0.329D+01-0.271D+01
 Coeff:      0.154D+01-0.901D+00-0.215D+00 0.329D+01-0.271D+01
 Gap=     0.453 Goal=   None    Shift=    0.000
 Gap=     0.401 Goal=   None    Shift=    0.000
 RMSDP=5.48D-06 MaxDP=2.20D-04 DE= 4.88D-08 OVMax= 5.94D-04

 Cycle  35  Pass 1  IDiag  1:
 E= -435.125424510158     Delta-E=        0.000000005262 Rises=F Damp=F
 DIIS: error= 1.24D-05 at cycle  35 NSaved=   6.
 NSaved= 6 IEnMin= 3 EnMin= -435.125424593821     IErMin= 2 ErrMin= 3.39D-06
 ErrMax= 1.24D-05  0.00D+00 EMaxC= 1.00D-01 BMatC= 5.09D-09 BMatP= 1.19D-10
 IDIUse=1 WtCom= 1.00D+00 WtEn= 0.00D+00
 Large coefficients: NSaved=  6 BigCof=   19.03 CofMax=   10.00 Det=-6.23D-14
 Inversion failed.  Reducing to  5 matrices.
 Coeff-Com: -0.192D+01 0.402D+01-0.545D+01 0.150D+01 0.285D+01
 Coeff:     -0.192D+01 0.402D+01-0.545D+01 0.150D+01 0.285D+01
 Gap=     0.453 Goal=   None    Shift=    0.000
 Gap=     0.401 Goal=   None    Shift=    0.000
 RMSDP=2.80D-04 MaxDP=1.24D-02 DE= 5.26D-09 OVMax= 3.08D-02

 Cycle  36  Pass 1  IDiag  1:
 E= -435.125424863671     Delta-E=       -0.000000353512 Rises=F Damp=F
 DIIS: error= 6.93D-05 at cycle  36 NSaved=   6.
 NSaved= 6 IEnMin= 6 EnMin= -435.125424863671     IErMin= 1 ErrMin= 3.39D-06
 ErrMax= 6.93D-05  0.00D+00 EMaxC= 1.00D-01 BMatC= 1.51D-07 BMatP= 1.19D-10
 IDIUse=1 WtCom= 1.00D+00 WtEn= 0.00D+00
 Large coefficients: NSaved=  6 BigCof=   13.44 CofMax=   10.00 Det=-9.37D-15
 Inversion failed.  Reducing to  5 matrices.
 Large coefficients: NSaved=  5 BigCof=   22.33 CofMax=   10.00 Det=-1.09D-14
 Inversion failed.  Reducing to  4 matrices.
 Large coefficients: NSaved=  4 BigCof=   21.84 CofMax=   10.00 Det=-1.13D-14
 Inversion failed.  Reducing to  3 matrices.
 Coeff-Com:  0.246D-01 0.833D+00 0.142D+00
 Coeff:      0.246D-01 0.833D+00 0.142D+00
 Gap=     0.453 Goal=   None    Shift=    0.000
 Gap=     0.401 Goal=   None    Shift=    0.000
 RMSDP=2.39D-04 MaxDP=1.06D-02 DE=-3.54D-07 OVMax= 2.62D-02

 Cycle  37  Pass 1  IDiag  1:
 E= -435.125424571738     Delta-E=        0.000000291932 Rises=F Damp=F
 DIIS: error= 6.48D-06 at cycle  37 NSaved=   4.
 NSaved= 4 IEnMin= 3 EnMin= -435.125424863671     IErMin= 4 ErrMin= 6.48D-06
 ErrMax= 6.48D-06  0.00D+00 EMaxC= 1.00D-01 BMatC= 1.43D-09 BMatP= 5.09D-09
 IDIUse=1 WtCom= 1.00D+00 WtEn= 0.00D+00
 Coeff-Com: -0.622D+00-0.221D+01 0.189D+00 0.364D+01
 Coeff:     -0.622D+00-0.221D+01 0.189D+00 0.364D+01
 Gap=     0.453 Goal=   None    Shift=    0.000
 Gap=     0.401 Goal=   None    Shift=    0.000
 RMSDP=1.25D-04 MaxDP=5.50D-03 DE= 2.92D-07 OVMax= 1.37D-02

 Cycle  38  Pass 1  IDiag  1:
 E= -435.125424747326     Delta-E=       -0.000000175587 Rises=F Damp=F
 DIIS: error= 5.84D-06 at cycle  38 NSaved=   5.
 NSaved= 5 IEnMin= 3 EnMin= -435.125424863671     IErMin= 5 ErrMin= 5.84D-06
 ErrMax= 5.84D-06  0.00D+00 EMaxC= 1.00D-01 BMatC= 1.21D-09 BMatP= 1.43D-09
 IDIUse=1 WtCom= 1.00D+00 WtEn= 0.00D+00
 Coeff-Com: -0.637D+00-0.532D+00 0.722D-01 0.536D+00 0.156D+01
 Coeff:     -0.637D+00-0.532D+00 0.722D-01 0.536D+00 0.156D+01
 Gap=     0.453 Goal=   None    Shift=    0.000
 Gap=     0.401 Goal=   None    Shift=    0.000
 RMSDP=9.72D-05 MaxDP=4.33D-03 DE=-1.76D-07 OVMax= 1.07D-02

 Cycle  39  Pass 1  IDiag  1:
 E= -435.125424874929     Delta-E=       -0.000000127603 Rises=F Damp=F
 DIIS: error= 1.49D-05 at cycle  39 NSaved=   6.
 NSaved= 6 IEnMin= 6 EnMin= -435.125424874929     IErMin= 5 ErrMin= 5.84D-06
 ErrMax= 1.49D-05  0.00D+00 EMaxC= 1.00D-01 BMatC= 7.16D-09 BMatP= 1.21D-09
 IDIUse=1 WtCom= 1.00D+00 WtEn= 0.00D+00
 Large coefficients: NSaved=  6 BigCof=   20.99 CofMax=   10.00 Det=-4.21D-14
 Inversion failed.  Reducing to  5 matrices.
 Coeff-Com: -0.441D+00-0.187D+00-0.176D+00 0.350D+00 0.145D+01
 Coeff:     -0.441D+00-0.187D+00-0.176D+00 0.350D+00 0.145D+01
 Gap=     0.453 Goal=   None    Shift=    0.000
 Gap=     0.401 Goal=   None    Shift=    0.000
 RMSDP=9.14D-05 MaxDP=4.11D-03 DE=-1.28D-07 OVMax= 1.01D-02

 Cycle  40  Pass 1  IDiag  1:
 E= -435.125424988086     Delta-E=       -0.000000113158 Rises=F Damp=F
 DIIS: error= 2.18D-05 at cycle  40 NSaved=   6.
 NSaved= 6 IEnMin= 6 EnMin= -435.125424988086     IErMin= 4 ErrMin= 5.84D-06
 ErrMax= 2.18D-05  0.00D+00 EMaxC= 1.00D-01 BMatC= 1.51D-08 BMatP= 1.21D-09
 IDIUse=1 WtCom= 1.00D+00 WtEn= 0.00D+00
 Coeff-Com:  0.277D+01-0.242D+01 0.154D+01-0.653D+01-0.250D+01 0.814D+01
 Coeff:      0.277D+01-0.242D+01 0.154D+01-0.653D+01-0.250D+01 0.814D+01
 Gap=     0.453 Goal=   None    Shift=    0.000
 Gap=     0.401 Goal=   None    Shift=    0.000
 RMSDP=3.43D-04 MaxDP=1.57D-02 DE=-1.13D-07 OVMax= 3.77D-02

 Cycle  41  Pass 1  IDiag  1:
 E= -435.125425366488     Delta-E=       -0.000000378402 Rises=F Damp=F
 DIIS: error= 4.98D-06 at cycle  41 NSaved=   7.
 NSaved= 7 IEnMin= 7 EnMin= -435.125425366488     IErMin= 7 ErrMin= 4.98D-06
 ErrMax= 4.98D-06  0.00D+00 EMaxC= 1.00D-01 BMatC= 7.83D-10 BMatP= 1.21D-09
 IDIUse=1 WtCom= 1.00D+00 WtEn= 0.00D+00
 Coeff-Com:  0.232D+01-0.162D+01 0.162D+01-0.671D+01-0.334D+01 0.716D+01
 Coeff-Com:  0.156D+01
 Coeff:      0.232D+01-0.162D+01 0.162D+01-0.671D+01-0.334D+01 0.716D+01
 Coeff:      0.156D+01
 Gap=     0.453 Goal=   None    Shift=    0.000
 Gap=     0.404 Goal=   None    Shift=    0.000
 RMSDP=6.82D-04 MaxDP=3.21D-02 DE=-3.78D-07 OVMax= 7.50D-02

 Cycle  42  Pass 1  IDiag  1:
 E= -435.125423686752     Delta-E=        0.000001679736 Rises=F Damp=F
 DIIS: error= 5.68D-04 at cycle  42 NSaved=   8.
 NSaved= 8 IEnMin= 7 EnMin= -435.125425366488     IErMin= 7 ErrMin= 4.98D-06
 ErrMax= 5.68D-04  0.00D+00 EMaxC= 1.00D-01 BMatC= 9.40D-06 BMatP= 7.83D-10
 IDIUse=1 WtCom= 1.00D+00 WtEn= 0.00D+00
 Coeff-Com:  0.236D+01-0.159D+01 0.117D+01-0.601D+01-0.290D+01 0.628D+01
 Coeff-Com:  0.168D+01 0.534D-02
 Coeff:      0.236D+01-0.159D+01 0.117D+01-0.601D+01-0.290D+01 0.628D+01
 Coeff:      0.168D+01 0.534D-02
 Gap=     0.452 Goal=   None    Shift=    0.000
 Gap=     0.401 Goal=   None    Shift=    0.000
 RMSDP=1.08D-06 MaxDP=5.19D-05 DE= 1.68D-06 OVMax= 1.18D-04

 Cycle  43  Pass 1  IDiag  1:
 E= -435.125423717115     Delta-E=       -0.000000030363 Rises=F Damp=F
 DIIS: error= 5.64D-04 at cycle  43 NSaved=   9.
 NSaved= 9 IEnMin= 7 EnMin= -435.125425366488     IErMin= 7 ErrMin= 4.98D-06
 ErrMax= 5.64D-04  0.00D+00 EMaxC= 1.00D-01 BMatC= 9.27D-06 BMatP= 7.83D-10
 IDIUse=1 WtCom= 1.00D+00 WtEn= 0.00D+00
 Large coefficients: NSaved=  9 BigCof=   16.14 CofMax=   10.00 Det=-5.83D-15
 Inversion failed.  Reducing to  8 matrices.
 Large coefficients: NSaved=  8 BigCof=   14.89 CofMax=   10.00 Det=-5.95D-15
 Inversion failed.  Reducing to  7 matrices.
 Large coefficients: NSaved=  7 BigCof=   26.37 CofMax=   10.00 Det=-8.00D-15
 Inversion failed.  Reducing to  6 matrices.
 Large coefficients: NSaved=  6 BigCof=   20.01 CofMax=   10.00 Det=-8.48D-15
 Inversion failed.  Reducing to  5 matrices.
 Large coefficients: NSaved=  5 BigCof=   14.51 CofMax=   10.00 Det=-9.21D-15
 Inversion failed.  Reducing to  4 matrices.
 Coeff-Com:  0.170D+00 0.793D+00-0.516D+01 0.520D+01
 Coeff:      0.170D+00 0.793D+00-0.516D+01 0.520D+01
 Gap=     0.454 Goal=   None    Shift=    0.000
 Gap=     0.401 Goal=   None    Shift=    0.000
 RMSDP=7.11D-04 MaxDP=3.34D-02 DE=-3.04D-08 OVMax= 7.82D-02

 Cycle  44  Pass 1  IDiag  1:
 E= -435.125425332874     Delta-E=       -0.000001615759 Rises=F Damp=F
 DIIS: error= 3.06D-05 at cycle  44 NSaved=   5.
 NSaved= 5 IEnMin= 2 EnMin= -435.125425366488     IErMin= 2 ErrMin= 4.98D-06
 ErrMax= 3.06D-05  0.00D+00 EMaxC= 1.00D-01 BMatC= 2.84D-08 BMatP= 7.83D-10
 IDIUse=1 WtCom= 1.00D+00 WtEn= 0.00D+00
 Coeff-Com:  0.149D+00 0.951D+00-0.903D+01 0.908D+01-0.157D+00
 Coeff:      0.149D+00 0.951D+00-0.903D+01 0.908D+01-0.157D+00
 Gap=     0.453 Goal=   None    Shift=    0.000
 Gap=     0.401 Goal=   None    Shift=    0.000
 RMSDP=3.01D-05 MaxDP=1.39D-03 DE=-1.62D-06 OVMax= 3.31D-03

 Cycle  45  Pass 1  IDiag  1:
 E= -435.125425357550     Delta-E=       -0.000000024677 Rises=F Damp=F
 DIIS: error= 4.00D-05 at cycle  45 NSaved=   6.
 NSaved= 6 IEnMin= 2 EnMin= -435.125425366488     IErMin= 2 ErrMin= 4.98D-06
 ErrMax= 4.00D-05  0.00D+00 EMaxC= 1.00D-01 BMatC= 4.85D-08 BMatP= 7.83D-10
 IDIUse=1 WtCom= 1.00D+00 WtEn= 0.00D+00
 Large coefficients: NSaved=  6 BigCof=   12.67 CofMax=   10.00 Det=-5.72D-15
 Inversion failed.  Reducing to  5 matrices.
 Coeff-Com: -0.388D+00 0.829D+00-0.144D-01 0.464D+01-0.406D+01
 Coeff:     -0.388D+00 0.829D+00-0.144D-01 0.464D+01-0.406D+01
 Gap=     0.453 Goal=   None    Shift=    0.000
 Gap=     0.402 Goal=   None    Shift=    0.000
 RMSDP=1.72D-05 MaxDP=8.12D-04 DE=-2.47D-08 OVMax= 1.89D-03

 Cycle  46  Pass 1  IDiag  1:
 E= -435.125425343977     Delta-E=        0.000000013573 Rises=F Damp=F
 DIIS: error= 3.41D-05 at cycle  46 NSaved=   6.
 NSaved= 6 IEnMin= 2 EnMin= -435.125425366488     IErMin= 2 ErrMin= 4.98D-06
 ErrMax= 3.41D-05  0.00D+00 EMaxC= 1.00D-01 BMatC= 3.55D-08 BMatP= 7.83D-10
 IDIUse=1 WtCom= 1.00D+00 WtEn= 0.00D+00
 Coeff-Com: -0.215D+01 0.196D+01-0.163D-01-0.892D+01 0.745D+01 0.267D+01
 Coeff:     -0.215D+01 0.196D+01-0.163D-01-0.892D+01 0.745D+01 0.267D+01
 Gap=     0.453 Goal=   None    Shift=    0.000
 Gap=     0.401 Goal=   None    Shift=    0.000
 RMSDP=9.45D-04 MaxDP=4.46D-02 DE= 1.36D-08 OVMax= 1.04D-01

 Cycle  47  Pass 1  IDiag  1:
 E= -435.125421441322     Delta-E=        0.000003902655 Rises=F Damp=F
 DIIS: error= 8.22D-04 at cycle  47 NSaved=   7.
 NSaved= 7 IEnMin= 2 EnMin= -435.125425366488     IErMin= 2 ErrMin= 4.98D-06
 ErrMax= 8.22D-04  0.00D+00 EMaxC= 1.00D-01 BMatC= 1.96D-05 BMatP= 7.83D-10
 IDIUse=1 WtCom= 1.00D+00 WtEn= 0.00D+00
 Coeff-Com: -0.245D+01 0.202D+01-0.176D+00-0.738D+01 0.580D+01 0.312D+01
 Coeff-Com:  0.764D-01
 Coeff:     -0.245D+01 0.202D+01-0.176D+00-0.738D+01 0.580D+01 0.312D+01
 Coeff:      0.764D-01
 Gap=     0.451 Goal=   None    Shift=    0.000
 Gap=     0.401 Goal=   None    Shift=    0.000
 RMSDP=1.09D-05 MaxDP=5.19D-04 DE= 3.90D-06 OVMax= 1.19D-03

 Cycle  48  Pass 1  IDiag  1:
 E= -435.125420924203     Delta-E=        0.000000517119 Rises=F Damp=F
 DIIS: error= 8.68D-04 at cycle  48 NSaved=   8.
 NSaved= 8 IEnMin= 2 EnMin= -435.125425366488     IErMin= 2 ErrMin= 4.98D-06
 ErrMax= 8.68D-04  0.00D+00 EMaxC= 1.00D-01 BMatC= 2.18D-05 BMatP= 7.83D-10
 IDIUse=1 WtCom= 1.00D+00 WtEn= 0.00D+00
 Coeff-Com: -0.244D+01 0.194D+01-0.184D+00-0.690D+01 0.543D+01 0.304D+01
 Coeff-Com:  0.495D+00-0.389D+00
 Coeff:     -0.244D+01 0.194D+01-0.184D+00-0.690D+01 0.543D+01 0.304D+01
 Coeff:      0.495D+00-0.389D+00
 Gap=     0.451 Goal=   None    Shift=    0.000
 Gap=     0.401 Goal=   None    Shift=    0.000
 RMSDP=1.04D-06 MaxDP=4.83D-05 DE= 5.17D-07 OVMax= 1.10D-04

 Cycle  49  Pass 1  IDiag  1:
 E= -435.125421045137     Delta-E=       -0.000000120934 Rises=F Damp=F
 DIIS: error= 8.58D-04 at cycle  49 NSaved=   9.
 NSaved= 9 IEnMin= 2 EnMin= -435.125425366488     IErMin= 2 ErrMin= 4.98D-06
 ErrMax= 8.58D-04  0.00D+00 EMaxC= 1.00D-01 BMatC= 2.13D-05 BMatP= 7.83D-10
 IDIUse=1 WtCom= 1.00D+00 WtEn= 0.00D+00
 Coeff-Com: -0.245D+01 0.193D+01-0.110D+00-0.608D+01 0.474D+01 0.292D+01
 Coeff-Com: -0.192D+00-0.269D+01 0.294D+01
 Coeff:     -0.245D+01 0.193D+01-0.110D+00-0.608D+01 0.474D+01 0.292D+01
 Coeff:     -0.192D+00-0.269D+01 0.294D+01
 Gap=     0.451 Goal=   None    Shift=    0.000
 Gap=     0.401 Goal=   None    Shift=    0.000
 RMSDP=7.08D-07 MaxDP=3.15D-05 DE=-1.21D-07 OVMax= 7.44D-05

 Cycle  50  Pass 1  IDiag  1:
 E= -435.125421140480     Delta-E=       -0.000000095343 Rises=F Damp=F
 DIIS: error= 8.49D-04 at cycle  50 NSaved=  10.
 NSaved=10 IEnMin= 2 EnMin= -435.125425366488     IErMin= 2 ErrMin= 4.98D-06
 ErrMax= 8.49D-04  0.00D+00 EMaxC= 1.00D-01 BMatC= 2.09D-05 BMatP= 7.83D-10
 IDIUse=1 WtCom= 1.00D+00 WtEn= 0.00D+00
 Large coefficients: NSaved= 10 BigCof=   58.40 CofMax=   10.00 Det=-3.62D-16
 Inversion failed.  Reducing to  9 matrices.
 Coeff-Com: -0.250D+01 0.195D+01-0.227D+00-0.710D+01 0.558D+01 0.318D+01
 Coeff-Com:  0.870D+00 0.156D+01-0.231D+01
 Coeff:     -0.250D+01 0.195D+01-0.227D+00-0.710D+01 0.558D+01 0.318D+01
 Coeff:      0.870D+00 0.156D+01-0.231D+01
 Gap=     0.451 Goal=   None    Shift=    0.000
 Gap=     0.401 Goal=   None    Shift=    0.000
 RMSDP=4.68D-06 MaxDP=2.19D-04 DE=-9.53D-08 OVMax= 5.07D-04

 Cycle  51  Pass 1  IDiag  1:
 E= -435.125420785435     Delta-E=        0.000000355046 Rises=F Damp=F
 DIIS: error= 8.80D-04 at cycle  51 NSaved=  10.
 NSaved=10 IEnMin= 2 EnMin= -435.125425366488     IErMin= 2 ErrMin= 4.98D-06
 ErrMax= 8.80D-04  0.00D+00 EMaxC= 1.00D-01 BMatC= 2.24D-05 BMatP= 7.83D-10
 IDIUse=1 WtCom= 1.00D+00 WtEn= 0.00D+00
 Coeff-Com: -0.250D+01 0.195D+01-0.226D+00-0.710D+01 0.558D+01 0.318D+01
 Coeff-Com:  0.876D+00 0.133D+01-0.217D+01 0.780D-01
 Coeff:     -0.250D+01 0.195D+01-0.226D+00-0.710D+01 0.558D+01 0.318D+01
 Coeff:      0.876D+00 0.133D+01-0.217D+01 0.780D-01
 Gap=     0.451 Goal=   None    Shift=    0.000
 Gap=     0.401 Goal=   None    Shift=    0.000
 RMSDP=3.78D-08 MaxDP=1.78D-06 DE= 3.55D-07 OVMax= 4.11D-06

 Cycle  52  Pass 1  IDiag  1:
 E= -435.125420782891     Delta-E=        0.000000002544 Rises=F Damp=F
 DIIS: error= 8.80D-04 at cycle  52 NSaved=  11.
 NSaved=11 IEnMin= 2 EnMin= -435.125425366488     IErMin= 2 ErrMin= 4.98D-06
 ErrMax= 8.80D-04  0.00D+00 EMaxC= 1.00D-01 BMatC= 2.24D-05 BMatP= 7.83D-10
 IDIUse=1 WtCom= 1.00D+00 WtEn= 0.00D+00
 Large coefficients: NSaved= 11 BigCof= 1078.14 CofMax=   10.00 Det=-8.74D-19
 Inversion failed.  Reducing to 10 matrices.
 Large coefficients: NSaved= 10 BigCof=   81.56 CofMax=   10.00 Det=-1.18D-17
 Inversion failed.  Reducing to  9 matrices.
 Large coefficients: NSaved=  9 BigCof=   93.80 CofMax=   10.00 Det=-1.22D-17
 Inversion failed.  Reducing to  8 matrices.
 Large coefficients: NSaved=  8 BigCof=   56.65 CofMax=   10.00 Det=-1.61D-17
 Inversion failed.  Reducing to  7 matrices.
 Large coefficients: NSaved=  7 BigCof=   52.72 CofMax=   10.00 Det=-1.61D-17
 Inversion failed.  Reducing to  6 matrices.
 Large coefficients: NSaved=  6 BigCof=  215.82 CofMax=   10.00 Det=-1.85D-17
 Inversion failed.  Reducing to  5 matrices.
 Large coefficients: NSaved=  5 BigCof=  408.38 CofMax=   10.00 Det=-1.94D-17
 Inversion failed.  Reducing to  4 matrices.
 Large coefficients: NSaved=  4 BigCof=  503.63 CofMax=   10.00 Det=-3.25D-17
 Inversion failed.  Reducing to  3 matrices.
 Large coefficients: NSaved=  3 BigCof=   98.79 CofMax=   10.00 Det=-1.14D-15
 Inversion failed.  Reducing to  2 matrices.
 Large coefficients: NSaved=  2 BigCof= 4028.42 CofMax=   10.00 Det=-1.38D-12
 Coeff-Com:  0.403D+04-0.403D+04
 Coeff:      0.403D+04-0.403D+04
 Gap=     0.453 Goal=   None    Shift=    0.000
 Gap=     0.401 Goal=   None    Shift=    0.000
 RMSDP=1.52D-04 MaxDP=7.14D-03 DE= 2.54D-09 OVMax= 1.66D-02

 Cycle  53  Pass 1  IDiag  1:
 E= -435.125425885494     Delta-E=       -0.000005102603 Rises=F Damp=F
 DIIS: error= 1.65D-05 at cycle  53 NSaved=   3.
 NSaved= 3 IEnMin= 3 EnMin= -435.125425885494     IErMin= 3 ErrMin= 1.65D-05
 ErrMax= 1.65D-05  0.00D+00 EMaxC= 1.00D-01 BMatC= 8.31D-09 BMatP= 2.24D-05
 IDIUse=1 WtCom= 1.00D+00 WtEn= 0.00D+00
 Large coefficients: NSaved=  3 BigCof=  775.93 CofMax=   10.00 Det=-7.39D-16
 Inversion failed.  Reducing to  2 matrices.
 Coeff-Com: -0.184D-01 0.102D+01
 Coeff:     -0.184D-01 0.102D+01
 Gap=     0.453 Goal=   None    Shift=    0.000
 Gap=     0.401 Goal=   None    Shift=    0.000
 RMSDP=2.79D-06 MaxDP=1.28D-04 DE=-5.10D-06 OVMax= 3.05D-04

 Cycle  54  Pass 1  IDiag  1:
 E= -435.125425886523     Delta-E=       -0.000000001029 Rises=F Damp=F
 DIIS: error= 1.73D-06 at cycle  54 NSaved=   3.
 NSaved= 3 IEnMin= 3 EnMin= -435.125425886523     IErMin= 3 ErrMin= 1.73D-06
 ErrMax= 1.73D-06  0.00D+00 EMaxC= 1.00D-01 BMatC= 1.22D-10 BMatP= 8.31D-09
 IDIUse=1 WtCom= 1.00D+00 WtEn= 0.00D+00
 Coeff-Com:  0.106D-02-0.942D-01 0.109D+01
 Coeff:      0.106D-02-0.942D-01 0.109D+01
 Gap=     0.453 Goal=   None    Shift=    0.000
 Gap=     0.401 Goal=   None    Shift=    0.000
 RMSDP=9.85D-08 MaxDP=4.11D-06 DE=-1.03D-09 OVMax= 9.67D-06

 Cycle  55  Pass 1  IDiag  1:
 E= -435.125425886517     Delta-E=        0.000000000005 Rises=F Damp=F
 DIIS: error= 6.81D-07 at cycle  55 NSaved=   4.
 NSaved= 4 IEnMin= 3 EnMin= -435.125425886523     IErMin= 4 ErrMin= 6.81D-07
 ErrMax= 6.81D-07  0.00D+00 EMaxC= 1.00D-01 BMatC= 3.71D-11 BMatP= 1.22D-10
 IDIUse=1 WtCom= 1.00D+00 WtEn= 0.00D+00
 Coeff-Com:  0.263D-02-0.156D+00 0.365D+00 0.788D+00
 Coeff:      0.263D-02-0.156D+00 0.365D+00 0.788D+00
 Gap=     0.453 Goal=   None    Shift=    0.000
 Gap=     0.401 Goal=   None    Shift=    0.000
 RMSDP=2.26D-08 MaxDP=6.79D-07 DE= 5.34D-12 OVMax= 9.92D-07

 Cycle  56  Pass 1  IDiag  1:
 E= -435.125425886526     Delta-E=       -0.000000000009 Rises=F Damp=F
 DIIS: error= 7.41D-07 at cycle  56 NSaved=   5.
 NSaved= 5 IEnMin= 5 EnMin= -435.125425886526     IErMin= 4 ErrMin= 6.81D-07
 ErrMax= 7.41D-07  0.00D+00 EMaxC= 1.00D-01 BMatC= 5.73D-12 BMatP= 3.71D-11
 IDIUse=1 WtCom= 1.00D+00 WtEn= 0.00D+00
 Coeff-Com: -0.189D-03 0.195D-01-0.134D+00-0.160D+00 0.127D+01
 Coeff:     -0.189D-03 0.195D-01-0.134D+00-0.160D+00 0.127D+01
 Gap=     0.453 Goal=   None    Shift=    0.000
 Gap=     0.401 Goal=   None    Shift=    0.000
 RMSDP=3.63D-08 MaxDP=1.76D-06 DE=-8.64D-12 OVMax= 3.93D-06

 Cycle  57  Pass 1  IDiag  1:
 E= -435.125425886537     Delta-E=       -0.000000000011 Rises=F Damp=F
 DIIS: error= 7.47D-07 at cycle  57 NSaved=   6.
 NSaved= 6 IEnMin= 6 EnMin= -435.125425886537     IErMin= 4 ErrMin= 6.81D-07
 ErrMax= 7.47D-07  0.00D+00 EMaxC= 1.00D-01 BMatC= 5.18D-12 BMatP= 5.73D-12
 IDIUse=1 WtCom= 1.00D+00 WtEn= 0.00D+00
 Coeff-Com:  0.168D-03-0.709D-02-0.415D-01-0.277D-01 0.348D+00 0.728D+00
 Coeff:      0.168D-03-0.709D-02-0.415D-01-0.277D-01 0.348D+00 0.728D+00
 Gap=     0.453 Goal=   None    Shift=    0.000
 Gap=     0.401 Goal=   None    Shift=    0.000
 RMSDP=1.12D-08 MaxDP=5.35D-07 DE=-1.08D-11 OVMax= 1.23D-06

 Cycle  58  Pass 1  IDiag  1:
 E= -435.125425886540     Delta-E=       -0.000000000004 Rises=F Damp=F
 DIIS: error= 7.47D-07 at cycle  58 NSaved=   7.
 NSaved= 7 IEnMin= 7 EnMin= -435.125425886540     IErMin= 4 ErrMin= 6.81D-07
 ErrMax= 7.47D-07  0.00D+00 EMaxC= 1.00D-01 BMatC= 5.18D-12 BMatP= 5.18D-12
 IDIUse=1 WtCom= 1.00D+00 WtEn= 0.00D+00
 Coeff-Com:  0.172D-03-0.730D-02-0.409D-01-0.266D-01 0.345D+00 0.698D+00
 Coeff-Com:  0.312D-01
 Coeff:      0.172D-03-0.730D-02-0.409D-01-0.266D-01 0.345D+00 0.698D+00
 Coeff:      0.312D-01
 Gap=     0.453 Goal=   None    Shift=    0.000
 Gap=     0.401 Goal=   None    Shift=    0.000
 RMSDP=4.31D-10 MaxDP=2.06D-08 DE=-3.75D-12 OVMax= 4.74D-08

 SCF Done:  E(UHF) =  -435.125425887     A.U. after   58 cycles
            NFock= 58  Conv=0.43D-09     -V/T= 2.0024
 <Sx>= 0.0000 <Sy>= 0.0000 <Sz>= 0.5000 <S**2>= 0.7527 S= 0.5013
 <L.S>= 0.000000000000E+00
 KE= 4.340709910201D+02 PE=-1.309441615008D+03 EE= 2.991444543389D+02
 Annihilation of the first spin contaminant:
 S**2 before annihilation     0.7527,   after     0.7500
 Leave Link  502 at Sat Mar  4 13:45:37 2017, MaxMem=   655360000 cpu:         4.2
 (Enter /mnt/software/gaussian/g09/l801.exe)
 Range of M.O.s used for correlation:     1    75
 NBasis=    75 NAE=    21 NBE=    20 NFC=     0 NFV=     0
 NROrb=     75 NOA=    21 NOB=    20 NVA=    54 NVB=    55
 Leave Link  801 at Sat Mar  4 13:45:37 2017, MaxMem=   655360000 cpu:         0.1
 (Enter /mnt/software/gaussian/g09/l1002.exe)
 Minotr:  UHF open shell wavefunction.
          Direct CPHF calculation.
          Differentiating once with respect to electric field.
                with respect to dipole field.
          Electric field/nuclear overlap derivatives assumed to be zero.
          Requested convergence is 1.0D-08 RMS, and 1.0D-07 maximum.
          Secondary convergence is 1.0D-12 RMS, and 1.0D-12 maximum.
          NewPWx=F KeepS1=T KeepF1=T KeepIn=T MapXYZ=F SortEE=F KeepMc=T.
          MDV=     655359806 using IRadAn=       2.
 Keep R1 and R2 ints in memory in canonical form, NReq=8971681.
 FoFCou: FMM=F IPFlag=           0 FMFlag=           0 FMFlg1=           0
         NFxFlg=           0 DoJE=F BraDBF=F KetDBF=F FulRan=T
         wScrn=  0.000000 ICntrl=     600 IOpCl=  0 I1Cent=           0 NGrid=           0
         NMat0=    1 NMatS0=   2850 NMatT0=    0 NMatD0=    1 NMtDS0=    0 NMtDT0=    0
 Symmetry not used in FoFCou.
          Solving linear equations simultaneously, MaxMat=       0.
          There are     3 degrees of freedom in the 1st order CPHF.  IDoFFX=0 NUNeed=     3.
      3 vectors produced by pass  0 Test12= 7.45D-14 3.33D-08 XBig12= 4.44D+00 6.21D-01.
 AX will form     3 AO Fock derivatives at one time.
      3 vectors produced by pass  1 Test12= 7.45D-14 3.33D-08 XBig12= 3.06D-01 9.39D-02.
      3 vectors produced by pass  2 Test12= 7.45D-14 3.33D-08 XBig12= 4.26D-02 6.10D-02.
      3 vectors produced by pass  3 Test12= 7.45D-14 3.33D-08 XBig12= 2.02D-03 1.70D-02.
      3 vectors produced by pass  4 Test12= 7.45D-14 3.33D-08 XBig12= 4.00D-05 1.22D-03.
      3 vectors produced by pass  5 Test12= 7.45D-14 3.33D-08 XBig12= 1.22D-06 2.12D-04.
      3 vectors produced by pass  6 Test12= 7.45D-14 3.33D-08 XBig12= 3.72D-08 6.01D-05.
      3 vectors produced by pass  7 Test12= 7.45D-14 3.33D-08 XBig12= 2.30D-09 3.93D-05.
      3 vectors produced by pass  8 Test12= 7.45D-14 3.33D-08 XBig12= 1.02D-10 2.37D-06.
      3 vectors produced by pass  9 Test12= 7.45D-14 3.33D-08 XBig12= 2.30D-12 1.07D-06.
      3 vectors produced by pass 10 Test12= 7.45D-14 3.33D-08 XBig12= 1.67D-13 1.16D-07.
 InvSVY:  IOpt=1 It=  1 EMax= 8.88D-16
 Solved reduced A of dimension    33 with     3 vectors.
 End of Minotr F.D. properties file   721 does not exist.
 End of Minotr F.D. properties file   722 does not exist.
 End of Minotr F.D. properties file   788 does not exist.
 Leave Link 1002 at Sat Mar  4 13:45:37 2017, MaxMem=   655360000 cpu:         2.3
 (Enter /mnt/software/gaussian/g09/l1101.exe)
 Using compressed storage, NAtomX=     5.
 Will process      6 centers per pass.
 Leave Link 1101 at Sat Mar  4 13:45:37 2017, MaxMem=   655360000 cpu:         0.8
 (Enter /mnt/software/gaussian/g09/l1102.exe)
 Symmetrizing basis deriv contribution to polar:
 IMax=3 JMax=2 DiffMx= 0.00D+00
 Leave Link 1102 at Sat Mar  4 13:45:37 2017, MaxMem=   655360000 cpu:         0.1
 (Enter /mnt/software/gaussian/g09/l1110.exe)
 Forming Gx(P) for the SCF density, NAtomX=     5.
 Integral derivatives from FoFJK, PRISM(SPDF).
 Do as many integral derivatives as possible in FoFJK.
 G2DrvN: MDV=     655359856.
 G2DrvN: will do     6 centers at a time, making    1 passes.
 PxScal for G2LodP:  IOpCl= 1 ISclPx=1 IMOff=     1 NMtTot=     4 NTT=    2850 ScalPx= 1.45D+00
 Calling FoFCou, ICntrl=  3107 FMM=F I1Cent=   0 AccDes= 0.00D+00.
 FoFJK:  IHMeth= 1 ICntrl=    3107 DoSepK=F KAlg= 0 I1Cent=   0 FoldK=F
 IRaf=         0 NMat=   1 IRICut=       1 DoRegI=T DoRafI=F ISym2E= 0.
 FoFCou: FMM=F IPFlag=           0 FMFlag=      100000 FMFlg1=           0
         NFxFlg=           0 DoJE=F BraDBF=F KetDBF=F FulRan=T
         wScrn=  0.000000 ICntrl=    3107 IOpCl=  1 I1Cent=           0 NGrid=           0
         NMat0=    1 NMatS0=      1 NMatT0=    0 NMatD0=    4 NMtDS0=    3 NMtDT0=    0
 Symmetry not used in FoFCou.
 End of G2Drv F.D. properties file   721 does not exist.
 End of G2Drv F.D. properties file   722 does not exist.
 End of G2Drv F.D. properties file   788 does not exist.
 Leave Link 1110 at Sat Mar  4 13:45:38 2017, MaxMem=   655360000 cpu:         1.9
 (Enter /mnt/software/gaussian/g09/l1002.exe)
 Minotr:  UHF open shell wavefunction.
          IDoAtm=11111
          Direct CPHF calculation.
          Differentiating once with respect to electric field.
                with respect to dipole field.
          Differentiating once with respect to nuclear coordinates.
          Requested convergence is 1.0D-08 RMS, and 1.0D-07 maximum.
          Secondary convergence is 1.0D-12 RMS, and 1.0D-12 maximum.
          NewPWx=T KeepS1=F KeepF1=F KeepIn=T MapXYZ=F SortEE=F KeepMc=T.
          MDV=     655359796 using IRadAn=       2.
 Keep R1 and R2 ints in memory in canonical form, NReq=8971796.
 FoFCou: FMM=F IPFlag=           0 FMFlag=           0 FMFlg1=           0
         NFxFlg=           0 DoJE=F BraDBF=F KetDBF=F FulRan=T
         wScrn=  0.000000 ICntrl=     600 IOpCl=  0 I1Cent=           0 NGrid=           0
         NMat0=    1 NMatS0=   2850 NMatT0=    0 NMatD0=    1 NMtDS0=    0 NMtDT0=    0
 Symmetry not used in FoFCou.
          Solving linear equations simultaneously, MaxMat=       0.
          There are    18 degrees of freedom in the 1st order CPHF.  IDoFFX=5 NUNeed=    18.
 Will reuse    3 saved solutions.
     12 vectors produced by pass  0 Test12= 1.24D-14 5.56D-09 XBig12= 2.03D-01 1.01D-01.
 AX will form    12 AO Fock derivatives at one time.
     12 vectors produced by pass  1 Test12= 1.24D-14 5.56D-09 XBig12= 1.62D-02 4.94D-02.
     12 vectors produced by pass  2 Test12= 1.24D-14 5.56D-09 XBig12= 2.13D-03 1.16D-02.
     12 vectors produced by pass  3 Test12= 1.24D-14 5.56D-09 XBig12= 5.06D-05 1.38D-03.
     10 vectors produced by pass  4 Test12= 1.24D-14 5.56D-09 XBig12= 6.44D-07 1.53D-04.
      9 vectors produced by pass  5 Test12= 1.24D-14 5.56D-09 XBig12= 1.09D-08 1.76D-05.
      9 vectors produced by pass  6 Test12= 1.24D-14 5.56D-09 XBig12= 1.49D-10 1.82D-06.
      8 vectors produced by pass  7 Test12= 1.24D-14 5.56D-09 XBig12= 1.06D-12 1.99D-07.
      3 vectors produced by pass  8 Test12= 1.24D-14 5.56D-09 XBig12= 4.22D-15 1.99D-08.
 InvSVY:  IOpt=1 It=  1 EMax= 2.29D-15
 Solved reduced A of dimension    87 with    12 vectors.
 FullF1:  Do perturbations    1 to     3.
 Isotropic polarizability for W=    0.000000       11.59 Bohr**3.
 FullF1:  Do perturbations    1 to     6.
 End of Minotr F.D. properties file   721 does not exist.
 End of Minotr F.D. properties file   722 does not exist.
 End of Minotr F.D. properties file   788 does not exist.
 Leave Link 1002 at Sat Mar  4 13:45:39 2017, MaxMem=   655360000 cpu:         4.1
 (Enter /mnt/software/gaussian/g09/l601.exe)
 Copying SCF densities to generalized density rwf, IOpCl= 1 IROHF=0.

 **********************************************************************

            Population analysis using the SCF density.

 **********************************************************************

 Orbital symmetries:
 Alpha Orbitals:
       Occupied  (A) (A) (A) (A) (A) (A) (A) (A) (A) (A) (A) (A)
                 (A) (A) (A) (A) (A) (A) (A) (A) (A)
       Virtual   (A) (A) (A) (A) (A) (A) (A) (A) (A) (A) (A) (A)
                 (A) (A) (A) (A) (A) (A) (A) (A) (A) (A) (A) (A)
                 (A) (A) (A) (A) (A) (A) (A) (A) (A) (A) (A) (A)
                 (A) (A) (A) (A) (A) (A) (A) (A) (A) (A) (A) (A)
                 (A) (A) (A) (A) (A) (A)
 Beta  Orbitals:
       Occupied  (A) (A) (A) (A) (A) (A) (A) (A) (A) (A) (A) (A)
                 (A) (A) (A) (A) (A) (A) (A) (A)
       Virtual   (A) (A) (A) (A) (A) (A) (A) (A) (A) (A) (A) (A)
                 (A) (A) (A) (A) (A) (A) (A) (A) (A) (A) (A) (A)
                 (A) (A) (A) (A) (A) (A) (A) (A) (A) (A) (A) (A)
                 (A) (A) (A) (A) (A) (A) (A) (A) (A) (A) (A) (A)
                 (A) (A) (A) (A) (A) (A) (A)
 The electronic state is 2-A.
 Alpha  occ. eigenvalues --  -26.75351 -26.74589 -26.73517 -26.43373 -11.96367
 Alpha  occ. eigenvalues --   -2.16923  -2.06160  -2.04001  -1.68754  -1.32621
 Alpha  occ. eigenvalues --   -1.23640  -1.23000  -1.18285  -1.07351  -1.06605
 Alpha  occ. eigenvalues --   -1.04020  -1.02863  -1.01450  -0.85578  -0.74789
 Alpha  occ. eigenvalues --   -0.74787
 Alpha virt. eigenvalues --   -0.29507   0.11757   0.13017   0.15134   0.32508
 Alpha virt. eigenvalues --    0.37917   0.39783   0.41943   1.00649   1.01276
 Alpha virt. eigenvalues --    1.02817   1.03534   1.06278   1.07024   1.27272
 Alpha virt. eigenvalues --    1.27906   1.28977   1.29744   1.31573   1.32350
 Alpha virt. eigenvalues --    1.33238   1.40075   1.40080   1.42090   1.62545
 Alpha virt. eigenvalues --    1.62998   1.73248   1.75397   1.78122   1.81980
 Alpha virt. eigenvalues --    1.83080   1.83322   1.99291   2.00785   2.01989
 Alpha virt. eigenvalues --    2.02511   2.02515   2.05067   2.07928   2.07928
 Alpha virt. eigenvalues --    2.12451   2.50714   2.52372   2.56246   2.87163
 Alpha virt. eigenvalues --    2.87551   3.13880   3.15708   3.17199   3.66591
 Alpha virt. eigenvalues --    4.20312   4.44391   4.49762   4.74580
  Beta  occ. eigenvalues --  -26.75351 -26.74589 -26.73517 -26.38598 -11.96367
  Beta  occ. eigenvalues --   -2.16923  -2.06160  -2.04001  -1.49563  -1.32621
  Beta  occ. eigenvalues --   -1.23640  -1.23000  -1.18285  -1.07351  -1.06605
  Beta  occ. eigenvalues --   -1.04020  -1.02863  -1.01450  -0.69624  -0.69622
  Beta virt. eigenvalues --   -0.29507   0.06105   0.11757   0.13017   0.15134
  Beta virt. eigenvalues --    0.32508   0.37917   0.39783   0.41943   1.00649
  Beta virt. eigenvalues --    1.01276   1.02817   1.06278   1.06764   1.07024
  Beta virt. eigenvalues --    1.27272   1.27906   1.28977   1.29744   1.31573
  Beta virt. eigenvalues --    1.32350   1.42090   1.42600   1.42606   1.55588
  Beta virt. eigenvalues --    1.62545   1.62998   1.73248   1.75397   1.78122
  Beta virt. eigenvalues --    1.81980   1.83080   1.83322   1.99291   2.01989
  Beta virt. eigenvalues --    2.05067   2.08602   2.08602   2.11393   2.11396
  Beta virt. eigenvalues --    2.12451   2.12495   2.50714   2.52372   2.56246
  Beta virt. eigenvalues --    2.87163   2.87551   3.13880   3.15708   3.17199
  Beta virt. eigenvalues --    3.70890   4.20312   4.44391   4.49762   4.74580
          Condensed to atoms (all electrons):
               1          2          3          4          5
     1  C    3.525381   0.413776   0.398842   0.000000   0.406103
     2  F    0.413776   8.732361  -0.041781   0.000000  -0.034735
     3  F    0.398842  -0.041781   8.788282   0.000000  -0.044363
     4  F    0.000000   0.000000   0.000000   9.000000   0.000000
     5  F    0.406103  -0.034735  -0.044363   0.000000   8.758292
          Atomic-Atomic Spin Densities.
               1          2          3          4          5
     1  C    0.000000   0.000000   0.000000   0.000000   0.000000
     2  F    0.000000   0.000000   0.000000   0.000000   0.000000
     3  F    0.000000   0.000000   0.000000   0.000000   0.000000
     4  F    0.000000   0.000000   0.000000   1.000000   0.000000
     5  F    0.000000   0.000000   0.000000   0.000000   0.000000
 Mulliken charges and spin densities:
               1          2
     1  C    1.255898   0.000000
     2  F   -0.069621   0.000000
     3  F   -0.100980   0.000000
     4  F    0.000000   1.000000
     5  F   -0.085297   0.000000
 Sum of Mulliken charges =   1.00000   1.00000
 Mulliken charges and spin densities with hydrogens summed into heavy atoms:
               1          2
     1  C    1.255898   0.000000
     2  F   -0.069621   0.000000
     3  F   -0.100980   0.000000
     4  F    0.000000   1.000000
     5  F   -0.085297   0.000000
 APT charges:
               1
     1  C    2.014829
     2  F   -0.338624
     3  F   -0.339571
     4  F    0.000000
     5  F   -0.336635
 Sum of APT charges =   1.00000
 APT charges with hydrogens summed into heavy atoms:
               1
     1  C    2.014829
     2  F   -0.338624
     3  F   -0.339571
     4  F    0.000000
     5  F   -0.336635
 Electronic spatial extent (au):  <R**2>=           6931.3063
 Charge=              1.0000 electrons
 Dipole moment (field-independent basis, Debye):
    X=            -16.0102    Y=             -0.0105    Z=             -1.2810  Tot=             16.0614
 Quadrupole moment (field-independent basis, Debye-Ang):
   XX=             32.3180   YY=            -20.3899   ZZ=            -20.2684
   XY=             -0.0817   XZ=              4.0136   YZ=              0.1835
 Traceless Quadrupole moment (field-independent basis, Debye-Ang):
   XX=             35.0981   YY=            -17.6098   ZZ=            -17.4883
   XY=             -0.0817   XZ=              4.0136   YZ=              0.1835
 Octapole moment (field-independent basis, Debye-Ang**2):
  XXX=           -184.8518  YYY=              0.5873  ZZZ=              0.1312  XYY=              7.5388
  XXY=             -1.2371  XXZ=            -12.6426  XZZ=             -4.4612  YZZ=             -0.1336
  YYZ=              0.7860  XYZ=              2.7537
 Hexadecapole moment (field-independent basis, Debye-Ang**3):
 XXXX=          -5317.9333 YYYY=            -65.6782 ZZZZ=            -20.6311 XXXY=            -17.8004
 XXXZ=             31.6227 YYYX=             -2.4332 YYYZ=              0.4129 ZZZX=             -0.0505
 ZZZY=             -0.1355 XXYY=           -875.2250 XXZZ=           -979.5998 YYZZ=            -14.4356
 XXYZ=             37.9718 YYXZ=             -2.6950 ZZXY=             -0.1753
 N-N= 1.411007437624D+02 E-N=-1.309441615007D+03  KE= 4.340709910201D+02
  Exact polarizability:  12.117  -0.105  12.972   1.202   0.053   9.680
 Approx polarizability:  11.385  -0.126  12.069   0.799   0.030   9.633
                          Isotropic Fermi Contact Couplings
        Atom                 a.u.       MegaHertz       Gauss      10(-4) cm-1
     1  C(13)              0.00000       0.00000       0.00000       0.00000
     2  F(19)              0.00000       0.00000       0.00000       0.00000
     3  F(19)              0.00000       0.00000       0.00000       0.00000
     4  F(19)              0.06931     291.59734     104.04918      97.26640
     5  F(19)              0.00000       0.00000       0.00000       0.00000
 --------------------------------------------------------
       Center         ----  Spin Dipole Couplings  ----
                      3XX-RR        3YY-RR        3ZZ-RR
 --------------------------------------------------------
     1   Atom        0.000069     -0.000034     -0.000034
     2   Atom        0.000077     -0.000038     -0.000039
     3   Atom        0.000056     -0.000028     -0.000028
     4   Atom       -2.887867      5.157536     -2.269669
     5   Atom        0.000068     -0.000034     -0.000034
 --------------------------------------------------------
                        XY            XZ            YZ
 --------------------------------------------------------
     1   Atom        0.000000      0.000001      0.000000
     2   Atom        0.000006     -0.000003      0.000000
     3   Atom        0.000002      0.000002      0.000000
     4   Atom       -0.438126     -0.123581      2.276059
     5   Atom       -0.000007     -0.000001      0.000000
 --------------------------------------------------------


 ---------------------------------------------------------------------------------
              Anisotropic Spin Dipole Couplings in Principal Axis System
 ---------------------------------------------------------------------------------

       Atom             a.u.   MegaHertz   Gauss  10(-4) cm-1        Axes

              Baa     0.0000    -0.005    -0.002    -0.002 -0.0094 -0.2719  0.9623
     1 C(13)  Bbb     0.0000    -0.005    -0.002    -0.002 -0.0029  0.9623  0.2719
              Bcc     0.0001     0.009     0.003     0.003  1.0000  0.0003  0.0098
 
              Baa     0.0000    -0.020    -0.007    -0.007  0.0422 -0.2691  0.9622
     2 F(19)  Bbb     0.0000    -0.019    -0.007    -0.006 -0.0418  0.9617  0.2708
              Bcc     0.0001     0.039     0.014     0.013  0.9982  0.0517 -0.0294
 
              Baa     0.0000    -0.014    -0.005    -0.005 -0.0130 -0.2721  0.9622
     3 F(19)  Bbb     0.0000    -0.014    -0.005    -0.005 -0.0263  0.9620  0.2717
              Bcc     0.0001     0.028     0.010     0.009  0.9996  0.0218  0.0196
 
              Baa    -2.9117 -1462.315  -521.790  -487.776 -0.0137 -0.2721  0.9622
     4 F(19)  Bbb    -2.9117 -1462.308  -521.788  -487.773  0.9985  0.0465  0.0274
              Bcc     5.8233  2924.623  1043.578   975.549 -0.0522  0.9611  0.2711
 
              Baa     0.0000    -0.017    -0.006    -0.006 -0.0076 -0.2716  0.9624
     5 F(19)  Bbb     0.0000    -0.017    -0.006    -0.006  0.0727  0.9597  0.2714
              Bcc     0.0001     0.035     0.012     0.012  0.9973 -0.0721 -0.0124
 

 ---------------------------------------------------------------------------------

 No NMR shielding tensors so no spin-rotation constants.
 Leave Link  601 at Sat Mar  4 13:45:39 2017, MaxMem=   655360000 cpu:         1.2
 (Enter /mnt/software/gaussian/g09/l701.exe)
 Compute integral second derivatives.
 ... and contract with generalized density number  0.
 Entering OneElI...
 Calculate overlap and kinetic energy integrals
    NBasis =  75  MinDer = 2  MaxDer = 2
 Requested accuracy = 0.1000D-12
 PrsmSu:  NPrtUS=   6 ThrOK=T IAlg=1 NPAlg=1 LenDen=           0.
 Prism:   IPart=     0 DynPar=F LinDyn=F Incr=           1.
 PRISM was handed   109212905 working-precision words and   146 shell-pairs
 PRISM was handed   109212905 working-precision words and   146 shell-pairs
 PRISM was handed   109212905 working-precision words and   146 shell-pairs
 PRISM was handed   109212905 working-precision words and   146 shell-pairs
 PRISM was handed   109212905 working-precision words and   146 shell-pairs
 PRISM was handed   109212905 working-precision words and   146 shell-pairs
 IPart=  0 NShTot=          29 NBatch=          15 AvBLen=         1.9
 IPart=  2 NShTot=          27 NBatch=          15 AvBLen=         1.8
 IPart=  1 NShTot=          29 NBatch=          15 AvBLen=         1.9
 IPart=  3 NShTot=          23 NBatch=          11 AvBLen=         2.1
 IPart=  4 NShTot=          23 NBatch=          11 AvBLen=         2.1
 IPart=  5 NShTot=          15 NBatch=          10 AvBLen=         1.5
 PrSmSu:  NxtVal=              7.
 Entering OneElI...
 Calculate potential energy integrals
    NBasis =  75  MinDer = 2  MaxDer = 2
 Requested accuracy = 0.1000D-12
 PrsmSu:  NPrtUS=   6 ThrOK=T IAlg=1 NPAlg=1 LenDen=           0.
 Prism:   IPart=     0 DynPar=F LinDyn=F Incr=           1.
 PRISM was handed   109214625 working-precision words and   143 shell-pairs
 PRISM was handed   109214625 working-precision words and   143 shell-pairs
 PRISM was handed   109214625 working-precision words and   143 shell-pairs
 PRISM was handed   109214625 working-precision words and   143 shell-pairs
 PRISM was handed   109214625 working-precision words and   143 shell-pairs
 PRISM was handed   109214625 working-precision words and   143 shell-pairs
 IPart=  0 NShTot=         140 NBatch=          28 AvBLen=         5.0
 IPart=  2 NShTot=         125 NBatch=          25 AvBLen=         5.0
 IPart=  1 NShTot=         135 NBatch=          27 AvBLen=         5.0
 IPart=  3 NShTot=         120 NBatch=          24 AvBLen=         5.0
 IPart=  4 NShTot=         120 NBatch=          24 AvBLen=         5.0
 IPart=  5 NShTot=          75 NBatch=          15 AvBLen=         5.0
 PrSmSu:  NxtVal=              7.
 Polarizability after L701:
                1             2             3 
      1  0.121169D+02
      2 -0.104741D+00  0.129722D+02
      3  0.120158D+01  0.526580D-01  0.967997D+01
 Dipole Derivatives after L701:
                 1             2             3             4             5 
      1   0.219844D+01 -0.210845D-01  0.425750D+00 -0.378547D+00  0.241035D+00
      2  -0.206491D-01  0.240579D+01 -0.325625D-02  0.172274D+00 -0.443177D+00
      3   0.416847D+00 -0.142257D-02  0.144026D+01 -0.129177D+00  0.999702D-01
                 6             7             8             9            10 
      1  -0.279750D+00 -0.621964D+00 -0.127994D+00 -0.552471D-01 -0.110857D-03
      2   0.211651D+00 -0.155471D+00 -0.274564D+00 -0.280112D-02  0.000000D+00
      3  -0.194147D+00 -0.238620D+00 -0.600231D-01 -0.122185D+00 -0.265204D-05
                11            12            13            14            15 
      1   0.000000D+00 -0.199366D-05 -0.197816D+00 -0.919574D-01 -0.907517D-01
      2   0.574329D-04  0.000000D+00  0.384619D-02 -0.688108D+00 -0.205594D+00
      3   0.000000D+00  0.547825D-04 -0.490474D-01 -0.385242D-01 -0.123980D+00
 Hessian after L701:
                1             2             3             4             5 
      1  0.206497D+02
      2  0.811645D+00  0.167337D+02
      3 -0.652240D+01  0.259556D+00  0.331216D+02
      4 -0.904573D+01 -0.541947D+01  0.492148D+01  0.828855D+01
      5 -0.521655D+01 -0.655742D+01 -0.576936D+01  0.667682D+01  0.564906D+01
      6  0.447181D+01 -0.541813D+01 -0.898101D+01 -0.571500D+01  0.610125D+01
      7  0.124132D+01  0.424751D+01  0.125773D+01  0.135517D+01 -0.732976D+00
      8  0.432982D+01 -0.110379D+02  0.337915D+00 -0.362889D+00 -0.796675D+00
      9  0.182091D+01  0.506047D+00 -0.126893D+02  0.802538D+00 -0.189743D+00
     10  0.162167D-02 -0.948486D-04  0.383126D-02  0.431427D-02  0.320550D-02
     11  0.190963D-04 -0.176286D-02  0.612666D-05  0.431241D-03 -0.305586D-02
     12 -0.845229D-04  0.457896D-05 -0.144668D-02 -0.257122D-03 -0.232573D-04
     13 -0.128469D+02  0.360414D+00  0.339361D+00 -0.602306D+00 -0.730500D+00
     14  0.750697D-01  0.863390D+00  0.517188D+01 -0.894894D+00  0.170809D+01
     15  0.229767D+00  0.465253D+01 -0.114498D+02 -0.875627D-02 -0.142127D+00
                6             7             8             9            10 
      6  0.103063D+02
      7  0.113932D+01 -0.264361D+01
      8 -0.107541D+00 -0.500689D+01  0.111736D+02
      9 -0.424626D+00 -0.296579D+01 -0.772188D+00  0.137244D+02
     10 -0.268752D-02  0.775954D-02  0.109503D-02  0.199634D-03 -0.194060D-01
     11 -0.749780D-04  0.188887D-03 -0.224487D-02  0.554067D-05 -0.298030D-04
     12 -0.316954D-02  0.225220D-03  0.264321D-04 -0.228230D-02  0.207935D-03
     13  0.106561D+00  0.393656D-01  0.103887D+01  0.342147D+00  0.571052D-02
     14 -0.575500D+00  0.149217D+01  0.663278D+00  0.455879D+00 -0.417588D-02
     15 -0.897521D+00  0.568518D+00  0.541787D+00 -0.608153D+00 -0.155131D-02
               11            12            13            14            15 
     11  0.967378D-02
[...]
     6       5                                 7                       5             6 3                                        5    
     0       4                                 9                       8             2 6                                        6    
 
     X       X                                 X                       X             X X                                        X    
     X       X                                                         X                                                             
     X       X                                                         X                                                             
     X       X                                                         X                                                             
     X       X                                                                                                                       
     X       X                                                                                                                       
     X       X                                                                                                                       
     X       X                                                                                                                       
     X       X                                                                                                                       
     X       X                                                                                                                       
     X       X                                                                                                                       
     X       X                                                                                                                       
     X       X                                                                                                                       
     X       X                                                                                                                       
     X       X                                                                                                                       
     X       X                                                                                                                       
     X       X                                                                                                                       
     X       X                                                                                                                       
     X       X                                                                                                                       
     X                                                                                                                               
 
 
                                                          Distorted Ethanol
                                                            Raman Spectrum
 
     1       1                                 1                                                                                     
     7       6                                 1                       8             6 6                                             
     6       5                                 7                       5             6 3                                        5    
     0       4                                 9                       8             2 6                                        6    
 
     X       X                                 X                       X             X X                                        X    
     X       X                                 X                       X             X X                                             
     X       X                                 X                       X             X X                                             
                                               X                                                                                     
                                               X                                                                                     
                                               X                                                                                     
                                               X                                                                                     
                                               X                                                                                     
                                               X                                                                                     
                                               X                                                                                     
                                               X                                                                                     
                                               X                                                                                     
                                               X                                                                                     
                                               X                                                                                     
                                               X                                                                                     
                                               X                                                                                     
                                               X                                                                                     
                                               X                                                                                     
                                               X                                                                                     
                                               X                                                                                     
 
 Forces in standard orientation:
 -------------------------------------------------------------------
 Center     Atomic                   Forces (Hartrees/Bohr)
 Number     Number              X              Y              Z
 -------------------------------------------------------------------
      1        6           0.099454961   -0.004193129   -0.139280554
      2        9          -0.039602116    0.006025265    0.040308252
      3        9          -0.025563220    0.002349969    0.052967143
      4        9           0.000001187   -0.000000096   -0.000000010
      5        9          -0.034290812   -0.004182008    0.046005169
 -------------------------------------------------------------------
 ***** Axes restored to original set *****
 Rotating derivatives, DoTrsp=F IDiff=-2 LEDeriv=    772 LFDPrp=       0 LDFDPr=       0.
 -------------------------------------------------------------------
 Center     Atomic                   Forces (Hartrees/Bohr)
 Number     Number              X              Y              Z
 -------------------------------------------------------------------
      1        6           0.123835369    0.054431142   -0.104928531
      2        9          -0.034820259   -0.025555352    0.036930476
      3        9          -0.044551926   -0.008944843    0.037411689
      4        9           0.000000153    0.000001117   -0.000000382
      5        9          -0.044463337   -0.019932064    0.030586747
 -------------------------------------------------------------------
 Cartesian Forces:  Max     0.123835369 RMS     0.051193538
 Z-matrix is all fixed cartesians, so copy forces.
 Force constants in Cartesian coordinates: 
                1             2             3             4             5 
      1  0.611149D+00
      2 -0.104760D+00  0.940152D+00
      3  0.330873D+00  0.189914D-01  0.766969D+00
      4 -0.334495D+00  0.231532D+00 -0.164142D+00  0.341761D+00
      5  0.210708D+00 -0.305236D+00  0.128965D+00 -0.281128D+00  0.384944D+00
      6 -0.141282D+00  0.119395D+00 -0.181818D+00  0.221852D+00 -0.175144D+00
      7 -0.119171D+00 -0.929968D-01 -0.223006D-01  0.159199D-01  0.527394D-01
      8 -0.673919D-01 -0.496908D+00 -0.531800D-01  0.266110D-01 -0.106199D+00
      9 -0.144513D-01 -0.318171D-01 -0.110607D+00 -0.533936D-02  0.295326D-01
     10  0.000000D+00  0.000000D+00  0.000000D+00  0.000000D+00  0.000000D+00
     11  0.000000D+00  0.000000D+00  0.000000D+00  0.000000D+00  0.000000D+00
     12  0.000000D+00  0.000000D+00  0.000000D+00  0.000000D+00  0.000000D+00
     13 -0.157483D+00 -0.337746D-01 -0.144430D+00 -0.231861D-01  0.176803D-01
     14 -0.385557D-01 -0.138008D+00 -0.947766D-01  0.229849D-01  0.264912D-01
     15 -0.175139D+00 -0.106569D+00 -0.474543D+00 -0.523707D-01  0.166463D-01
                6             7             8             9            10 
      6  0.204099D+00
      7 -0.825738D-02  0.882760D-01
      8  0.258501D-01  0.826570D-01  0.653837D+00
      9  0.299746D-01  0.562718D-01  0.821222D-01  0.108718D+00
     10  0.000000D+00  0.000000D+00  0.000000D+00  0.000000D+00  0.000000D+00
     11  0.000000D+00  0.000000D+00  0.000000D+00  0.000000D+00  0.000000D+00
     12  0.000000D+00  0.000000D+00  0.000000D+00  0.000000D+00  0.000000D+00
     13 -0.723119D-01  0.149752D-01 -0.418761D-01 -0.364812D-01  0.000000D+00
     14  0.298994D-01 -0.423997D-01 -0.507301D-01 -0.798377D-01  0.000000D+00
     15 -0.522554D-01 -0.257139D-01 -0.547923D-01 -0.280852D-01  0.000000D+00
               11            12            13            14            15 
     11  0.000000D+00
     12  0.000000D+00  0.000000D+00
     13  0.000000D+00  0.000000D+00  0.165694D+00
     14  0.000000D+00  0.000000D+00  0.579704D-01  0.162247D+00
     15  0.000000D+00  0.000000D+00  0.253223D+00  0.144715D+00  0.554884D+00
 Final forces over variables, Energy=-4.35125426D+02:
  1.23835369D-01-3.48202589D-02-4.45519263D-02 1.53091209D-07
 -4.44633366D-02 5.44311419D-02-2.55553523D-02-8.94484342D-03
  1.11745592D-06-1.99320637D-02-1.04928531D-01 3.69304764D-02
  3.74116893D-02-3.81896771D-07 3.05867472D-02
 Leave Link  716 at Sat Mar  4 13:45:40 2017, MaxMem=   655360000 cpu:         0.1
 (Enter /mnt/software/gaussian/g09/l103.exe)

 GradGradGradGradGradGradGradGradGradGradGradGradGradGradGradGradGradGrad
 Berny optimization.
 Search for a local minimum.
 Step number   1 out of a maximum of    2
 All quantities printed in internal units (Hartrees-Bohrs-Radians)
 Second derivative matrix not updated -- analytic derivatives used.
 The second derivative matrix:
                          X1        Y1        Z1        X2        Y2
           X1           0.61115
           Y1          -0.10476   0.94015
           Z1           0.33087   0.01899   0.76697
           X2          -0.33449   0.23153  -0.16414   0.34176
           Y2           0.21071  -0.30524   0.12897  -0.28113   0.38494
           Z2          -0.14128   0.11939  -0.18182   0.22185  -0.17514
           X3          -0.11917  -0.09300  -0.02230   0.01592   0.05274
           Y3          -0.06739  -0.49691  -0.05318   0.02661  -0.10620
           Z3          -0.01445  -0.03182  -0.11061  -0.00534   0.02953
           X4           0.00000   0.00000   0.00000   0.00000   0.00000
           Y4           0.00000   0.00000   0.00000   0.00000   0.00000
           Z4           0.00000   0.00000   0.00000   0.00000   0.00000
           X5          -0.15748  -0.03377  -0.14443  -0.02319   0.01768
           Y5          -0.03856  -0.13801  -0.09478   0.02298   0.02649
           Z5          -0.17514  -0.10657  -0.47454  -0.05237   0.01665
                          Z2        X3        Y3        Z3        X4
           Z2           0.20410
           X3          -0.00826   0.08828
           Y3           0.02585   0.08266   0.65384
           Z3           0.02997   0.05627   0.08212   0.10872
           X4           0.00000   0.00000   0.00000   0.00000   0.00000
           Y4           0.00000   0.00000   0.00000   0.00000   0.00000
           Z4           0.00000   0.00000   0.00000   0.00000   0.00000
           X5          -0.07231   0.01498  -0.04188  -0.03648   0.00000
           Y5           0.02990  -0.04240  -0.05073  -0.07984   0.00000
           Z5          -0.05226  -0.02571  -0.05479  -0.02809   0.00000
                          Y4        Z4        X5        Y5        Z5
           Y4           0.00000
           Z4           0.00000   0.00000
           X5           0.00000   0.00000   0.16569
           Y5           0.00000   0.00000   0.05797   0.16225
           Z5           0.00000   0.00000   0.25322   0.14471   0.55488
 ITU=  0
     Eigenvalues ---   -0.00045   0.00000   0.00225   0.27761   0.30123
     Eigenvalues ---    0.38801   0.94163   1.43094   1.61875
 Eigenvalue     1 is  -4.46D-04 should be greater than     0.000000 Eigenvector:
                          Y5        X2        Y2        Z3        Z5
   1                    0.51762  -0.44108  -0.42945   0.36901  -0.30713
                          X3        X5        Y3        Z2        Z4
   1                    0.22478   0.17912  -0.10258  -0.09665   0.08749
 Eigenvalue     2 is  -1.98D-07 should be greater than     0.000000 Eigenvector:
                          Y4        Z4        Y2        Y1        Y3
   1                    0.84289  -0.22486  -0.22086  -0.22086  -0.22086
                          Y5        X4        Z3        Z1        Z5
   1                   -0.22085   0.15336   0.05892   0.05892   0.05892
 Quadratic step=6.805D+00 exceeds max=3.000D-01 adjusted using Lamda=-2.484D-01.
 Angle between NR and scaled steps=  85.05 degrees.
 Angle between quadratic step and forces=  10.06 degrees.
 Linear search not attempted -- first point.
 TrRot= -0.006198 -0.002160  0.004840 -1.227266  0.000221  1.227524
 MatCor failed.
 Variable       Old X    -DE/DX   Delta X   Delta X   Delta X     New X
                                 (Linear)    (Quad)   (Total)
    X1       -0.17078   0.12384   0.00000   0.20283   0.19376   0.02298
    Y1       10.48653   0.05443   0.00000   0.06230   0.06056  10.54710
    Z1       -1.81334  -0.10493   0.00000  -0.16022  -0.15319  -1.96652
    X2        1.43287  -0.03482   0.00000  -0.04891  -0.05750   1.37536
    Y2        9.08714  -0.02556   0.00000  -0.04288  -0.04451   9.04263
    Z2       -0.91875   0.03693   0.00000   0.05583   0.06245  -0.85630
    X3        0.36117  -0.04455   0.00000  -0.04916  -0.05878   0.30239
    Y3       12.77278  -0.00894   0.00000   0.02155   0.01980  12.79258
    Z3       -1.61415   0.03741   0.00000   0.05176   0.05923  -1.55492
    X4       -5.18405   0.00000   0.00000   0.00156   0.00066  -5.18340
    Y4      -18.88873   0.00000   0.00000   0.00470   0.00001 -18.88873
    Z4        5.77809   0.00000   0.00000  -0.00161  -0.00031   5.77778
    X5       -0.97636  -0.04446   0.00000  -0.06909  -0.07814  -1.05450
    Y5        9.95921  -0.01993   0.00000  -0.03424  -0.03586   9.92336
    Z5       -3.93887   0.03059   0.00000   0.02483   0.03181  -3.90706
         Item               Value     Threshold  Converged?
 Maximum Force            0.123835     0.000450     NO 
 RMS     Force            0.051194     0.000300     NO 
 Maximum Displacement     0.193763     0.001800     NO 
 RMS     Displacement     0.077298     0.001200     NO 
 Predicted change in Energy=-4.051386D-02
 GradGradGradGradGradGradGradGradGradGradGradGradGradGradGradGradGradGrad

 Leave Link  103 at Sat Mar  4 13:45:40 2017, MaxMem=   655360000 cpu:         0.1
 (Enter /mnt/software/gaussian/g09/l9999.exe)

 Test job not archived.
 1\1\GINC-TP-LINUX1\Freq\UHF\6-31G(d)\C1F4(1+,2)\THOMAS\04-Mar-2017\0\\
 #P UHF/6-31g* IOP(7/33=1) IOP(7/8=11) Freq\\Distorted Ethanol\\1,2\C,-
 0.090372,5.549234,-0.959576\F,0.75824,4.808708,-0.48618\F,0.191123,6.7
 59064,-0.854172\F,-2.743283,-9.995487,3.057634\F,-0.516667,5.270188,-2
 .084359\\Version=ES64L-G09RevD.01\State=2-A\HF=-435.1254259\S2=0.75267
 3\S2-1=0.\S2A=0.750003\RMSD=4.311e-10\RMSF=5.119e-02\ZeroPoint=0.01550
 44\Thermal=0.0195145\Dipole=0.681624,6.1441624,-1.3094641\DipoleDeriv=
 1.6895484,-0.1270895,0.5506279,-0.1202201,2.3639861,0.0694529,0.547827
 ,0.0747238,1.9909521,-0.3366458,0.2968666,-0.2902045,0.1673266,-0.4251
 918,0.1545992,-0.1484304,0.099896,-0.2540333,-0.1507946,-0.1463797,-0.
 1038354,-0.0009371,-0.6874175,-0.1320621,-0.0606188,-0.0110916,-0.1805
 009,0.0000515,-0.000025,0.0000071,-0.0000247,-0.0000966,0.0000389,0.00
 00082,0.0000398,0.0000465,-0.2021595,-0.0233724,-0.1565951,-0.0461447,
 -0.2512801,-0.0920289,-0.338786,-0.1635681,-0.5564645\Polar=10.5251315
 ,-0.2957861,12.5640215,1.7929267,0.168212,11.6799587\PolarDeriv=-3.255
 9325,-0.1065719,-1.4871448,0.4716895,0.0488994,-0.8226269,-0.0227743,-
 1.4416938,-1.2556866,0.0326733,0.8387759,-0.0582912,0.4583154,0.057911
 5,0.8553733,-0.782865,-0.1206359,2.9761108,3.2194521,-1.1702426,1.2021
 65,0.9411261,-0.1165924,1.1061213,-0.9331128,1.4005542,-2.9276875,-0.2
 889393,0.6356787,-0.4553524,0.6463349,-0.3323739,0.3398201,1.3629305,-
 0.8712131,1.4788885,1.0558196,1.5015378,0.5064893,0.1684168,0.1696689,
 0.5513066,0.9892697,0.6867001,5.2673233,0.3186458,0.0929572,0.9661224,
 -0.0873327,0.2552237,0.1046353,0.4375704,1.522874,0.2657262,-0.0000407
 ,-0.0000836,0.0000751,0.0000175,-0.0000283,-0.0000046,-0.0000823,0.000
 0577,0.0001552,-0.0000222,-0.0000844,-0.0000472,0.0000195,-0.0000194,-
 0.0000961,-0.0000033,-0.00007,0.0000592,-1.0192986,-0.2246398,-0.22158
 46,-1.58125,-0.1019477,-0.8347963,-0.0333003,-0.6456182,-1.0841043,-0.
 0623576,-1.5673274,-0.4524317,-1.0173371,0.0192582,-1.2997326,-1.01763
 26,-0.530955,-4.7207848\HyperPolar=-9.6901914,2.6062794,-7.8414716,-8.
 8792755,-0.5098756,2.411455,1.0545618,0.318842,3.6620507,12.6150527\PG
 =C01 [X(C1F4)]\NImag=2\\0.61114916,-0.10476050,0.94015239,0.33087259,0
 .01899141,0.76696901,-0.33449455,0.23153181,-0.16414162,0.34176068,0.2
 1070809,-0.30523622,0.12896529,-0.28112776,0.38494424,-0.14128239,0.11
 939467,-0.18181813,0.22185165,-0.17514416,0.20409888,-0.11917116,-0.09
 299676,-0.02230057,0.01591991,0.05273941,-0.00825738,0.08827601,-0.067
 39190,-0.49690821,-0.05317999,0.02661096,-0.10619911,0.02585010,0.0826
 5702,0.65383748,-0.01445130,-0.03181709,-0.11060728,-0.00533936,0.0295
 3262,0.02997461,0.05627182,0.08212216,0.10871788,-0.00000009,0.0000000
 9,-0.00000009,0.00000003,-0.00000004,0.00000002,0.,-0.00000001,0.00000
 001,0.00000004,-0.00000003,0.00000031,-0.00000013,0.00000005,-0.000000
 07,0.00000003,0.,-0.00000006,0.00000001,-0.00000002,-0.00000014,-0.000
 00008,-0.00000009,-0.00000018,0.,-0.00000003,0.00000002,0.00000003,0.0
 0000007,0.00000002,0.00000003,0.00000007,0.00000008,-0.15748335,-0.033
 77465,-0.14443031,-0.02318607,0.01768031,-0.07231190,0.01497523,-0.041
 87606,-0.03648117,0.,0.,0.,0.16569418,-0.03855566,-0.13800828,-0.09477
 657,0.02298494,0.02649116,0.02989936,-0.04239966,-0.05073010,-0.079837
 71,-0.00000002,-0.00000004,-0.00000002,0.05797040,0.16224726,-0.175138
 82,-0.10656891,-0.47454342,-0.05237067,0.01664628,-0.05225537,-0.02571
 390,-0.05479235,-0.02808522,0.00000003,0.00000002,0.00000006,0.2532233
 6,0.14471495,0.55488396\\-0.12383537,-0.05443114,0.10492853,0.03482026
 ,0.02555535,-0.03693048,0.04455193,0.00894484,-0.03741169,-0.00000015,
 -0.00000112,0.00000038,0.04446334,0.01993206,-0.03058675\\\@


 THERE IS NO SCIENCE WITHOUT FANCY, NOR ART WITHOUT FACTS.
     -- VLADIMIR NABAKOV
 Job cpu time:       0 days  0 hours  0 minutes 22.6 seconds.
 File lengths (MBytes):  RWF=     12 Int=      0 D2E=      0 Chk=      2 Scr=      1
 Normal termination of Gaussian 09 at Sat Mar  4 13:45:40 2017.
