 Entering Gaussian System, Link 0=g09
 Input=/home/thomas/cf4/DD-vMCG/dd_data/gwp16_V1_dd_data.com
 Output=/home/thomas/cf4/DD-vMCG/dd_data/gwp16_V1_dd_data.log
 Initial command:
 /mnt/software/gaussian/g09/l1.exe "/scratch/Gau-30971.inp" -scrdir="/scratch/"
 Entering Link 1 = /mnt/software/gaussian/g09/l1.exe PID=     30974.
  
 Copyright (c) 1988,1990,1992,1993,1995,1998,2003,2009,2013,
            Gaussian, Inc.  All Rights Reserved.
  
 This is part of the Gaussian(R) 09 program.  It is based on
 the Gaussian(R) 03 system (copyright 2003, Gaussian, Inc.),
 the Gaussian(R) 98 system (copyright 1998, Gaussian, Inc.),
 the Gaussian(R) 94 system (copyright 1995, Gaussian, Inc.),
 the Gaussian 92(TM) system (copyright 1992, Gaussian, Inc.),
 the Gaussian 90(TM) system (copyright 1990, Gaussian, Inc.),
 the Gaussian 88(TM) system (copyright 1988, Gaussian, Inc.),
 the Gaussian 86(TM) system (copyright 1986, Carnegie Mellon
 University), and the Gaussian 82(TM) system (copyright 1983,
 Carnegie Mellon University). Gaussian is a federally registered
 trademark of Gaussian, Inc.
  
 This software contains proprietary and confidential information,
 including trade secrets, belonging to Gaussian, Inc.
  
 This software is provided under written license and may be
 used, copied, transmitted, or stored only in accord with that
 written license.
  
 The following legend is applicable only to US Government
 contracts under FAR:
  
                    RESTRICTED RIGHTS LEGEND
  
 Use, reproduction and disclosure by the US Government is
 subject to restrictions as set forth in subparagraphs (a)
 and (c) of the Commercial Computer Software - Restricted
 Rights clause in FAR 52.227-19.
  
 Gaussian, Inc.
 340 Quinnipiac St., Bldg. 40, Wallingford CT 06492
  
  
 ---------------------------------------------------------------
 Warning -- This program may not be used in any manner that
 competes with the business of Gaussian, Inc. or will provide
 assistance to any competitor of Gaussian, Inc.  The licensee
 of this program is prohibited from giving any competitor of
 Gaussian, Inc. access to this program.  By using this program,
 the user acknowledges that Gaussian, Inc. is engaged in the
 business of creating and licensing software in the field of
 computational chemistry and represents and warrants to the
 licensee that it is not a competitor of Gaussian, Inc. and that
 it will not use this program in any manner prohibited above.
 ---------------------------------------------------------------
  

 Cite this work as:
 Gaussian 09, Revision D.01,
 M. J. Frisch, G. W. Trucks, H. B. Schlegel, G. E. Scuseria, 
 M. A. Robb, J. R. Cheeseman, G. Scalmani, V. Barone, B. Mennucci, 
 G. A. Petersson, H. Nakatsuji, M. Caricato, X. Li, H. P. Hratchian, 
 A. F. Izmaylov, J. Bloino, G. Zheng, J. L. Sonnenberg, M. Hada, 
 M. Ehara, K. Toyota, R. Fukuda, J. Hasegawa, M. Ishida, T. Nakajima, 
 Y. Honda, O. Kitao, H. Nakai, T. Vreven, J. A. Montgomery, Jr., 
 J. E. Peralta, F. Ogliaro, M. Bearpark, J. J. Heyd, E. Brothers, 
 K. N. Kudin, V. N. Staroverov, T. Keith, R. Kobayashi, J. Normand, 
 K. Raghavachari, A. Rendell, J. C. Burant, S. S. Iyengar, J. Tomasi, 
 M. Cossi, N. Rega, J. M. Millam, M. Klene, J. E. Knox, J. B. Cross, 
 V. Bakken, C. Adamo, J. Jaramillo, R. Gomperts, R. E. Stratmann, 
 O. Yazyev, A. J. Austin, R. Cammi, C. Pomelli, J. W. Ochterski, 
 R. L. Martin, K. Morokuma, V. G. Zakrzewski, G. A. Voth, 
 P. Salvador, J. J. Dannenberg, S. Dapprich, A. D. Daniels, 
 O. Farkas, J. B. Foresman, J. V. Ortiz, J. Cioslowski, 
 and D. J. Fox, Gaussian, Inc., Wallingford CT, 2013.
 
 ******************************************
 Gaussian 09:  ES64L-G09RevD.01 24-Apr-2013
                 4-Mar-2017 
 ******************************************
 %mem=5000MB
 %Nprocshared=6
 Will use up to    6 processors via shared memory.
 %chk=gwp16_V1_dd_data.chk
 ------------------------------------------
 #P UHF/6-31g* IOP(7/33=1) IOP(7/8=11) Freq
 ------------------------------------------
 1/10=4,30=1,38=1/1,3;
 2/12=2,17=6,18=5,40=1/2;
 3/5=1,6=6,7=1,11=2,16=1,25=1,30=1,71=2,116=2,140=1/1,2,3;
 4//1;
 5/5=2,38=5,98=1/2;
 8/6=4,10=90,11=11/1;
 10/13=10,15=4/2;
 11/6=3,8=1,9=11,15=111,16=1/1,2,10;
 10/6=1/2;
 6/7=2,8=2,9=2,10=2,18=1,28=1/1;
 7/8=11,10=1,25=1,33=1/1,2,3,16;
 1/10=4,30=1/3;
 99//99;
 Leave Link    1 at Sat Mar  4 13:39:42 2017, MaxMem=   655360000 cpu:         0.2
 (Enter /mnt/software/gaussian/g09/l101.exe)
 -----------------
 Distorted Ethanol
 -----------------
 Symbolic Z-matrix:
 Charge =  1 Multiplicity = 2
 6                     0.94266   4.74059  -1.50443 
 9                     1.88196   5.40596  -1.08284 
 9                     0.38036   4.01914  -0.61698 
 9                    -5.87437  -6.53575   4.66118 
 9                     0.2461    5.28951  -2.32177 
 
 NAtoms=      5 NQM=        5 NQMF=       0 NMMI=      0 NMMIF=      0
                NMic=       0 NMicF=      0.
                    Isotopes and Nuclear Properties:
 (Nuclear quadrupole moments (NQMom) in fm**2, nuclear magnetic moments (NMagM)
  in nuclear magnetons)

  Atom         1           2           3           4           5
 IAtWgt=          12          19          19          19          19
 AtmWgt=  12.0000000  18.9984033  18.9984033  18.9984033  18.9984033
 NucSpn=           0           1           1           1           1
 AtZEff=   0.0000000   0.0000000   0.0000000   0.0000000   0.0000000
 NQMom=    0.0000000   0.0000000   0.0000000   0.0000000   0.0000000
 NMagM=    0.0000000   2.6288670   2.6288670   2.6288670   2.6288670
 AtZNuc=   6.0000000   9.0000000   9.0000000   9.0000000   9.0000000
 Leave Link  101 at Sat Mar  4 13:39:42 2017, MaxMem=   655360000 cpu:         0.4
 (Enter /mnt/software/gaussian/g09/l103.exe)

 GradGradGradGradGradGradGradGradGradGradGradGradGradGradGradGradGradGrad
 Berny optimization.
 Initialization pass.
 Trust Radius=3.00D-01 FncErr=1.00D-07 GrdErr=1.00D-07
 Number of steps in this run=      2 maximum allowed number of steps=      2.
 GradGradGradGradGradGradGradGradGradGradGradGradGradGradGradGradGradGrad

 Leave Link  103 at Sat Mar  4 13:39:42 2017, MaxMem=   655360000 cpu:         0.1
 (Enter /mnt/software/gaussian/g09/l202.exe)
                          Input orientation:                          
 ---------------------------------------------------------------------
 Center     Atomic      Atomic             Coordinates (Angstroms)
 Number     Number       Type             X           Y           Z
 ---------------------------------------------------------------------
      1          6           0        0.942658    4.740591   -1.504429
      2          9           0        1.881958    5.405959   -1.082837
      3          9           0        0.380359    4.019145   -0.616981
      4          9           0       -5.874367   -6.535747    4.661179
      5          9           0        0.246104    5.289510   -2.321771
 ---------------------------------------------------------------------
                    Distance matrix (angstroms):
                    1          2          3          4          5
     1  C    0.000000
     2  F    1.225863   0.000000
     3  F    1.274452   2.096443   0.000000
     4  F   14.547933  15.354434  13.356134   0.000000
     5  F    1.206046   2.055368   2.130296  15.035241   0.000000
 Stoichiometry    CF4(1+,2)
 Framework group  C1[X(CF4)]
 Deg. of freedom     9
 Full point group                 C1      NOp   1
 Largest Abelian subgroup         C1      NOp   1
 Largest concise Abelian subgroup C1      NOp   1
                         Standard orientation:                         
 ---------------------------------------------------------------------
 Center     Atomic      Atomic             Coordinates (Angstroms)
 Number     Number       Type             X           Y           Z
 ---------------------------------------------------------------------
      1          6           0       -3.109895    0.020864    0.203536
      2          9           0       -3.890483   -0.907968    0.028343
      3          9           0       -1.916056   -0.230265   -0.165126
      4          9           0       11.436803    0.004591    0.014656
      5          9           0       -3.557000    1.119732   -0.013563
 ---------------------------------------------------------------------
 Rotational constants (GHZ):     12.1680503      0.1579446      0.1560206
 Leave Link  202 at Sat Mar  4 13:39:42 2017, MaxMem=   655360000 cpu:         0.0
 (Enter /mnt/software/gaussian/g09/l301.exe)
 Standard basis: 6-31G(d) (6D, 7F)
 Ernie: Thresh=  0.10000D-02 Tol=  0.10000D-05 Strict=F.
 There are    75 symmetry adapted cartesian basis functions of A   symmetry.
 There are    75 symmetry adapted basis functions of A   symmetry.
    75 basis functions,   140 primitive gaussians,    75 cartesian basis functions
    21 alpha electrons       20 beta electrons
       nuclear repulsion energy       141.6629173461 Hartrees.
 IExCor=    0 DFT=F Ex=HF Corr=None ExCW=0 ScaHFX=  1.000000
 ScaDFX=  1.000000  1.000000  1.000000  1.000000 ScalE2=  1.000000  1.000000
 IRadAn=      0 IRanWt=     -1 IRanGd=            0 ICorTp=0 IEmpDi=  4
 NAtoms=    5 NActive=    5 NUniq=    5 SFac= 1.00D+00 NAtFMM=   60 NAOKFM=F Big=F
 Integral buffers will be    131072 words long.
 Raffenetti 2 integral format.
 Two-electron integral symmetry is turned on.
 Leave Link  301 at Sat Mar  4 13:39:42 2017, MaxMem=   655360000 cpu:         0.3
 (Enter /mnt/software/gaussian/g09/l302.exe)
 NPDir=0 NMtPBC=     1 NCelOv=     1 NCel=       1 NClECP=     1 NCelD=      1
         NCelK=      1 NCelE2=     1 NClLst=     1 CellRange=     0.0.
 One-electron integrals computed using PRISM.
 NBasis=    75 RedAO= T EigKep=  3.60D-03  NBF=    75
 NBsUse=    75 1.00D-06 EigRej= -1.00D+00 NBFU=    75
 Leave Link  302 at Sat Mar  4 13:39:42 2017, MaxMem=   655360000 cpu:         0.7
 (Enter /mnt/software/gaussian/g09/l303.exe)
 DipDrv:  MaxL=1.
 Leave Link  303 at Sat Mar  4 13:39:42 2017, MaxMem=   655360000 cpu:         0.2
 (Enter /mnt/software/gaussian/g09/l401.exe)
 ExpMin= 1.69D-01 ExpMax= 7.00D+03 ExpMxC= 1.05D+03 IAcc=1 IRadAn=         1 AccDes= 0.00D+00
 Harris functional with IExCor=  205 and IRadAn=       1 diagonalized for initial guess.
 HarFok:  IExCor=  205 AccDes= 0.00D+00 IRadAn=         1 IDoV= 1 UseB2=F ITyADJ=14
 ICtDFT=  3500011 ScaDFX=  1.000000  1.000000  1.000000  1.000000
 FoFCou: FMM=F IPFlag=           0 FMFlag=      100000 FMFlg1=           0
         NFxFlg=           0 DoJE=T BraDBF=F KetDBF=T FulRan=T
         wScrn=  0.000000 ICntrl=     500 IOpCl=  0 I1Cent=   200000004 NGrid=           0
         NMat0=    1 NMatS0=      1 NMatT0=    0 NMatD0=    1 NMtDS0=    0 NMtDT0=    0
 Petite list used in FoFCou.
 Harris En= -435.018988473958    
 JPrj=0 DoOrth=F DoCkMO=F.
 Initial guess <Sx>= 0.0000 <Sy>= 0.0000 <Sz>= 0.5000 <S**2>= 0.7500 S= 0.5000
 Leave Link  401 at Sat Mar  4 13:39:42 2017, MaxMem=   655360000 cpu:         0.8
 (Enter /mnt/software/gaussian/g09/l502.exe)
 UHF open shell SCF:
 Using DIIS extrapolation, IDIIS=  1040.
 Integral symmetry usage will be decided dynamically.
 Keep R1 and R2 ints in memory in canonical form, NReq=8999644.
 IVT=       36430 IEndB=       36430 NGot=   655360000 MDV=   647198221
 LenX=   647198221 LenY=   647192155
 Requested convergence on RMS density matrix=1.00D-08 within 128 cycles.
 Requested convergence on MAX density matrix=1.00D-06.
 Requested convergence on             energy=1.00D-06.
 No special actions if energy rises.
 FoFCou: FMM=F IPFlag=           0 FMFlag=           0 FMFlg1=           0
         NFxFlg=           0 DoJE=F BraDBF=F KetDBF=F FulRan=T
         wScrn=  0.000000 ICntrl=     600 IOpCl=  0 I1Cent=           0 NGrid=           0
         NMat0=    1 NMatS0=   2850 NMatT0=    0 NMatD0=    1 NMtDS0=    0 NMtDT0=    0
 Symmetry not used in FoFCou.

 Cycle   1  Pass 1  IDiag  1:
 E= -435.058592492119    
 DIIS: error= 7.71D-02 at cycle   1 NSaved=   1.
 NSaved= 1 IEnMin= 1 EnMin= -435.058592492119     IErMin= 1 ErrMin= 7.71D-02
 ErrMax= 7.71D-02  0.00D+00 EMaxC= 1.00D-01 BMatC= 9.99D-01 BMatP= 9.99D-01
 IDIUse=3 WtCom= 2.29D-01 WtEn= 7.71D-01
 Coeff-Com:  0.100D+01
 Coeff-En:   0.100D+01
 Coeff:      0.100D+01
 Gap=     0.513 Goal=   None    Shift=    0.000
 Gap=     0.788 Goal=   None    Shift=    0.000
 GapD=    0.513 DampG=2.000 DampE=0.500 DampFc=1.0000 IDamp=-1.
 RMSDP=3.84D-03 MaxDP=6.16D-02              OVMax= 5.17D-02

 Cycle   2  Pass 1  IDiag  1:
 E= -435.126393098038     Delta-E=       -0.067800605919 Rises=F Damp=F
 DIIS: error= 1.52D-02 at cycle   2 NSaved=   2.
 NSaved= 2 IEnMin= 2 EnMin= -435.126393098038     IErMin= 2 ErrMin= 1.52D-02
 ErrMax= 1.52D-02  0.00D+00 EMaxC= 1.00D-01 BMatC= 5.50D-02 BMatP= 9.99D-01
 IDIUse=3 WtCom= 8.48D-01 WtEn= 1.52D-01
 Coeff-Com:  0.787D-01 0.921D+00
 Coeff-En:   0.000D+00 0.100D+01
 Coeff:      0.668D-01 0.933D+00
 Gap=     0.482 Goal=   None    Shift=    0.000
 Gap=     0.436 Goal=   None    Shift=    0.000
 RMSDP=1.34D-03 MaxDP=2.37D-02 DE=-6.78D-02 OVMax= 4.57D-02

 Cycle   3  Pass 1  IDiag  1:
 E= -435.134669405101     Delta-E=       -0.008276307064 Rises=F Damp=F
 DIIS: error= 6.10D-03 at cycle   3 NSaved=   3.
 NSaved= 3 IEnMin= 3 EnMin= -435.134669405101     IErMin= 3 ErrMin= 6.10D-03
 ErrMax= 6.10D-03  0.00D+00 EMaxC= 1.00D-01 BMatC= 1.71D-02 BMatP= 5.50D-02
 IDIUse=3 WtCom= 9.39D-01 WtEn= 6.10D-02
 Coeff-Com: -0.242D-01 0.334D+00 0.691D+00
 Coeff-En:   0.000D+00 0.000D+00 0.100D+01
 Coeff:     -0.228D-01 0.313D+00 0.709D+00
 Gap=     0.474 Goal=   None    Shift=    0.000
 Gap=     0.425 Goal=   None    Shift=    0.000
 RMSDP=4.31D-04 MaxDP=9.44D-03 DE=-8.28D-03 OVMax= 9.24D-03

 Cycle   4  Pass 1  IDiag  1:
 E= -435.137303785432     Delta-E=       -0.002634380330 Rises=F Damp=F
 DIIS: error= 1.22D-03 at cycle   4 NSaved=   4.
 NSaved= 4 IEnMin= 4 EnMin= -435.137303785432     IErMin= 4 ErrMin= 1.22D-03
 ErrMax= 1.22D-03  0.00D+00 EMaxC= 1.00D-01 BMatC= 3.23D-04 BMatP= 1.71D-02
 IDIUse=3 WtCom= 9.88D-01 WtEn= 1.22D-02
 Coeff-Com: -0.362D-02-0.588D-01-0.513D-01 0.111D+01
 Coeff-En:   0.000D+00 0.000D+00 0.000D+00 0.100D+01
 Coeff:     -0.358D-02-0.581D-01-0.506D-01 0.111D+01
 Gap=     0.474 Goal=   None    Shift=    0.000
 Gap=     0.424 Goal=   None    Shift=    0.000
 RMSDP=1.38D-04 MaxDP=2.11D-03 DE=-2.63D-03 OVMax= 4.20D-03

 Cycle   5  Pass 1  IDiag  1:
 E= -435.137443846802     Delta-E=       -0.000140061371 Rises=F Damp=F
 DIIS: error= 4.60D-04 at cycle   5 NSaved=   5.
 NSaved= 5 IEnMin= 5 EnMin= -435.137443846802     IErMin= 5 ErrMin= 4.60D-04
 ErrMax= 4.60D-04  0.00D+00 EMaxC= 1.00D-01 BMatC= 3.83D-05 BMatP= 3.23D-04
 IDIUse=3 WtCom= 9.95D-01 WtEn= 4.60D-03
 Coeff-Com:  0.345D-02-0.287D-01-0.717D-01-0.960D-01 0.119D+01
 Coeff-En:   0.000D+00 0.000D+00 0.000D+00 0.000D+00 0.100D+01
 Coeff:      0.343D-02-0.285D-01-0.713D-01-0.955D-01 0.119D+01
 Gap=     0.475 Goal=   None    Shift=    0.000
 Gap=     0.424 Goal=   None    Shift=    0.000
 RMSDP=5.53D-05 MaxDP=1.03D-03 DE=-1.40D-04 OVMax= 1.88D-03

 Cycle   6  Pass 1  IDiag  1:
 E= -435.137463089225     Delta-E=       -0.000019242422 Rises=F Damp=F
 DIIS: error= 1.24D-04 at cycle   6 NSaved=   6.
 NSaved= 6 IEnMin= 6 EnMin= -435.137463089225     IErMin= 6 ErrMin= 1.24D-04
 ErrMax= 1.24D-04  0.00D+00 EMaxC= 1.00D-01 BMatC= 2.36D-06 BMatP= 3.83D-05
 IDIUse=3 WtCom= 9.99D-01 WtEn= 1.24D-03
 Coeff-Com:  0.101D-04 0.449D-02 0.715D-02-0.558D-01-0.769D-01 0.112D+01
 Coeff-En:   0.000D+00 0.000D+00 0.000D+00 0.000D+00 0.000D+00 0.100D+01
 Coeff:      0.100D-04 0.448D-02 0.714D-02-0.557D-01-0.768D-01 0.112D+01
 Gap=     0.476 Goal=   None    Shift=    0.000
 Gap=     0.424 Goal=   None    Shift=    0.000
 RMSDP=1.24D-05 MaxDP=2.48D-04 DE=-1.92D-05 OVMax= 3.53D-04

 Cycle   7  Pass 1  IDiag  1:
 E= -435.137464023152     Delta-E=       -0.000000933928 Rises=F Damp=F
 DIIS: error= 3.82D-05 at cycle   7 NSaved=   7.
 NSaved= 7 IEnMin= 7 EnMin= -435.137464023152     IErMin= 7 ErrMin= 3.82D-05
 ErrMax= 3.82D-05  0.00D+00 EMaxC= 1.00D-01 BMatC= 4.62D-07 BMatP= 2.36D-06
 IDIUse=1 WtCom= 1.00D+00 WtEn= 0.00D+00
 Coeff-Com: -0.408D-03 0.473D-02 0.105D-01-0.375D-02-0.164D+00 0.335D+00
 Coeff-Com:  0.818D+00
 Coeff:     -0.408D-03 0.473D-02 0.105D-01-0.375D-02-0.164D+00 0.335D+00
 Coeff:      0.818D+00
 Gap=     0.476 Goal=   None    Shift=    0.000
 Gap=     0.424 Goal=   None    Shift=    0.000
 RMSDP=3.59D-06 MaxDP=7.44D-05 DE=-9.34D-07 OVMax= 8.88D-05

 Cycle   8  Pass 1  IDiag  1:
 E= -435.137464131582     Delta-E=       -0.000000108430 Rises=F Damp=F
 DIIS: error= 1.13D-05 at cycle   8 NSaved=   8.
 NSaved= 8 IEnMin= 8 EnMin= -435.137464131582     IErMin= 8 ErrMin= 1.13D-05
 ErrMax= 1.13D-05  0.00D+00 EMaxC= 1.00D-01 BMatC= 2.09D-08 BMatP= 4.62D-07
 IDIUse=1 WtCom= 1.00D+00 WtEn= 0.00D+00
 Coeff-Com:  0.754D-04-0.118D-02-0.270D-02 0.507D-02 0.356D-01-0.139D+00
 Coeff-Com: -0.164D+00 0.127D+01
 Coeff:      0.754D-04-0.118D-02-0.270D-02 0.507D-02 0.356D-01-0.139D+00
 Coeff:     -0.164D+00 0.127D+01
 Gap=     0.476 Goal=   None    Shift=    0.000
 Gap=     0.424 Goal=   None    Shift=    0.000
 RMSDP=1.33D-06 MaxDP=2.57D-05 DE=-1.08D-07 OVMax= 3.85D-05

 Cycle   9  Pass 1  IDiag  1:
 E= -435.137464141718     Delta-E=       -0.000000010136 Rises=F Damp=F
 DIIS: error= 4.70D-06 at cycle   9 NSaved=   9.
 NSaved= 9 IEnMin= 9 EnMin= -435.137464141718     IErMin= 9 ErrMin= 4.70D-06
 ErrMax= 4.70D-06  0.00D+00 EMaxC= 1.00D-01 BMatC= 2.14D-09 BMatP= 2.09D-08
 IDIUse=1 WtCom= 1.00D+00 WtEn= 0.00D+00
 Coeff-Com:  0.399D-04-0.513D-03-0.115D-02 0.790D-03 0.175D-01-0.420D-01
 Coeff-Com: -0.912D-01 0.137D+00 0.980D+00
 Coeff:      0.399D-04-0.513D-03-0.115D-02 0.790D-03 0.175D-01-0.420D-01
 Coeff:     -0.912D-01 0.137D+00 0.980D+00
 Gap=     0.476 Goal=   None    Shift=    0.000
 Gap=     0.424 Goal=   None    Shift=    0.000
 RMSDP=3.79D-07 MaxDP=7.82D-06 DE=-1.01D-08 OVMax= 1.54D-05

 Cycle  10  Pass 1  IDiag  1:
 E= -435.137464142839     Delta-E=       -0.000000001120 Rises=F Damp=F
 DIIS: error= 4.58D-06 at cycle  10 NSaved=  10.
 NSaved=10 IEnMin=10 EnMin= -435.137464142839     IErMin=10 ErrMin= 4.58D-06
 ErrMax= 4.58D-06  0.00D+00 EMaxC= 1.00D-01 BMatC= 4.13D-10 BMatP= 2.14D-09
 IDIUse=1 WtCom= 1.00D+00 WtEn= 0.00D+00
 Coeff-Com: -0.122D-04 0.181D-03 0.416D-03-0.632D-03-0.571D-02 0.188D-01
 Coeff-Com:  0.257D-01-0.124D+00-0.176D+00 0.126D+01
 Coeff:     -0.122D-04 0.181D-03 0.416D-03-0.632D-03-0.571D-02 0.188D-01
 Coeff:      0.257D-01-0.124D+00-0.176D+00 0.126D+01
 Gap=     0.476 Goal=   None    Shift=    0.000
 Gap=     0.424 Goal=   None    Shift=    0.000
 RMSDP=2.17D-07 MaxDP=7.62D-06 DE=-1.12D-09 OVMax= 1.90D-05

 Cycle  11  Pass 1  IDiag  1:
 E= -435.137464143355     Delta-E=       -0.000000000517 Rises=F Damp=F
 DIIS: error= 4.58D-06 at cycle  11 NSaved=  11.
 NSaved=11 IEnMin=11 EnMin= -435.137464143355     IErMin=11 ErrMin= 4.58D-06
 ErrMax= 4.58D-06  0.00D+00 EMaxC= 1.00D-01 BMatC= 2.85D-10 BMatP= 4.13D-10
 IDIUse=1 WtCom= 1.00D+00 WtEn= 0.00D+00
 Coeff-Com:  0.180D-05-0.314D-04-0.711D-04 0.167D-03 0.867D-03-0.348D-02
 Coeff-Com: -0.444D-02 0.337D-01 0.187D-02-0.414D+00 0.138D+01
 Coeff:      0.180D-05-0.314D-04-0.711D-04 0.167D-03 0.867D-03-0.348D-02
 Coeff:     -0.444D-02 0.337D-01 0.187D-02-0.414D+00 0.138D+01
 Gap=     0.476 Goal=   None    Shift=    0.000
 Gap=     0.424 Goal=   None    Shift=    0.000
 RMSDP=1.91D-07 MaxDP=7.81D-06 DE=-5.17D-10 OVMax= 2.05D-05

 Cycle  12  Pass 1  IDiag  1:
 E= -435.137464143818     Delta-E=       -0.000000000463 Rises=F Damp=F
 DIIS: error= 4.58D-06 at cycle  12 NSaved=  12.
 NSaved=12 IEnMin=12 EnMin= -435.137464143818     IErMin=12 ErrMin= 4.58D-06
 ErrMax= 4.58D-06  0.00D+00 EMaxC= 1.00D-01 BMatC= 2.76D-10 BMatP= 2.85D-10
 IDIUse=1 WtCom= 1.00D+00 WtEn= 0.00D+00
 Coeff-Com:  0.111D-05-0.175D-04-0.382D-04 0.723D-04 0.509D-03-0.179D-02
 Coeff-Com: -0.252D-02 0.141D-01 0.116D-01-0.152D+00 0.208D+00 0.922D+00
 Coeff:      0.111D-05-0.175D-04-0.382D-04 0.723D-04 0.509D-03-0.179D-02
 Coeff:     -0.252D-02 0.141D-01 0.116D-01-0.152D+00 0.208D+00 0.922D+00
 Gap=     0.476 Goal=   None    Shift=    0.000
 Gap=     0.424 Goal=   None    Shift=    0.000
 RMSDP=1.31D-07 MaxDP=5.47D-06 DE=-4.63D-10 OVMax= 1.44D-05

 Cycle  13  Pass 1  IDiag  1:
 E= -435.137464144140     Delta-E=       -0.000000000322 Rises=F Damp=F
 DIIS: error= 4.58D-06 at cycle  13 NSaved=  13.
 NSaved=13 IEnMin=13 EnMin= -435.137464144140     IErMin=13 ErrMin= 4.58D-06
 ErrMax= 4.58D-06  0.00D+00 EMaxC= 1.00D-01 BMatC= 2.75D-10 BMatP= 2.76D-10
 IDIUse=1 WtCom= 1.00D+00 WtEn= 0.00D+00
 Coeff-Com: -0.148D-06 0.268D-05 0.700D-05-0.168D-04-0.795D-04 0.344D-03
 Coeff-Com:  0.372D-03-0.351D-02 0.800D-03 0.486D-01-0.201D+00 0.121D+00
 Coeff-Com:  0.103D+01
 Coeff:     -0.148D-06 0.268D-05 0.700D-05-0.168D-04-0.795D-04 0.344D-03
 Coeff:      0.372D-03-0.351D-02 0.800D-03 0.486D-01-0.201D+00 0.121D+00
 Coeff:      0.103D+01
 Gap=     0.476 Goal=   None    Shift=    0.000
 Gap=     0.424 Goal=   None    Shift=    0.000
 RMSDP=1.53D-07 MaxDP=6.40D-06 DE=-3.22D-10 OVMax= 1.68D-05

 Cycle  14  Pass 1  IDiag  1:
 E= -435.137464144516     Delta-E=       -0.000000000376 Rises=F Damp=F
 DIIS: error= 4.58D-06 at cycle  14 NSaved=  14.
 NSaved=14 IEnMin=14 EnMin= -435.137464144516     IErMin=14 ErrMin= 4.58D-06
 ErrMax= 4.58D-06  0.00D+00 EMaxC= 1.00D-01 BMatC= 2.75D-10 BMatP= 2.75D-10
 IDIUse=1 WtCom= 1.00D+00 WtEn= 0.00D+00
 Coeff-Com: -0.716D-07 0.101D-05 0.160D-05-0.212D-05-0.254D-04 0.759D-04
 Coeff-Com:  0.122D-03-0.330D-03-0.177D-02 0.406D-03 0.534D-01-0.181D+00
 Coeff-Com: -0.413D+00 0.154D+01
 Coeff:     -0.716D-07 0.101D-05 0.160D-05-0.212D-05-0.254D-04 0.759D-04
 Coeff:      0.122D-03-0.330D-03-0.177D-02 0.406D-03 0.534D-01-0.181D+00
 Coeff:     -0.413D+00 0.154D+01
 Gap=     0.476 Goal=   None    Shift=    0.000
 Gap=     0.424 Goal=   None    Shift=    0.000
 RMSDP=2.18D-07 MaxDP=9.11D-06 DE=-3.76D-10 OVMax= 2.40D-05

 Cycle  15  Pass 1  IDiag  1:
 E= -435.137464145052     Delta-E=       -0.000000000536 Rises=F Damp=F
 DIIS: error= 4.58D-06 at cycle  15 NSaved=  15.
 NSaved=15 IEnMin=15 EnMin= -435.137464145052     IErMin=15 ErrMin= 4.58D-06
 ErrMax= 4.58D-06  0.00D+00 EMaxC= 1.00D-01 BMatC= 2.75D-10 BMatP= 2.75D-10
 IDIUse=1 WtCom= 1.00D+00 WtEn= 0.00D+00
 Coeff-Com:  0.539D-06-0.843D-05-0.182D-04 0.358D-04 0.233D-03-0.885D-03
 Coeff-Com: -0.109D-02 0.716D-02 0.662D-02-0.836D-01 0.108D+00 0.612D+00
 Coeff-Com:  0.133D-01-0.718D+01 0.751D+01
 Coeff:      0.539D-06-0.843D-05-0.182D-04 0.358D-04 0.233D-03-0.885D-03
 Coeff:     -0.109D-02 0.716D-02 0.662D-02-0.836D-01 0.108D+00 0.612D+00
 Coeff:      0.133D-01-0.718D+01 0.751D+01
 Gap=     0.476 Goal=   None    Shift=    0.000
 Gap=     0.424 Goal=   None    Shift=    0.000
 RMSDP=1.36D-06 MaxDP=5.70D-05 DE=-5.36D-10 OVMax= 1.50D-04

 Cycle  16  Pass 1  IDiag  1:
 E= -435.137464148401     Delta-E=       -0.000000003349 Rises=F Damp=F
 DIIS: error= 4.57D-06 at cycle  16 NSaved=  16.
 NSaved=16 IEnMin=16 EnMin= -435.137464148401     IErMin=16 ErrMin= 4.57D-06
 ErrMax= 4.57D-06  0.00D+00 EMaxC= 1.00D-01 BMatC= 2.74D-10 BMatP= 2.75D-10
 IDIUse=1 WtCom= 1.00D+00 WtEn= 0.00D+00
 Large coefficients: NSaved= 16 BigCof=    0.00 CofMax=   10.00 Det=-5.64D-16
 Inversion failed.  Reducing to 15 matrices.
 Large coefficients: NSaved= 15 BigCof=   33.71 CofMax=   10.00 Det=-8.32D-16
 Inversion failed.  Reducing to 14 matrices.
 Large coefficients: NSaved= 14 BigCof=   31.20 CofMax=   10.00 Det=-9.12D-16
 Inversion failed.  Reducing to 13 matrices.
 Large coefficients: NSaved= 13 BigCof=   24.64 CofMax=   10.00 Det=-1.00D-15
 Inversion failed.  Reducing to 12 matrices.
 Large coefficients: NSaved= 12 BigCof=   23.28 CofMax=   10.00 Det=-1.07D-15
 Inversion failed.  Reducing to 11 matrices.
 Large coefficients: NSaved= 11 BigCof=   22.32 CofMax=   10.00 Det=-1.10D-15
 Inversion failed.  Reducing to 10 matrices.
 Large coefficients: NSaved= 10 BigCof=   22.03 CofMax=   10.00 Det=-1.15D-15
 Inversion failed.  Reducing to  9 matrices.
 Large coefficients: NSaved=  9 BigCof=   22.05 CofMax=   10.00 Det=-1.15D-15
 Inversion failed.  Reducing to  8 matrices.
 Large coefficients: NSaved=  8 BigCof=   21.20 CofMax=   10.00 Det=-1.23D-15
 Inversion failed.  Reducing to  7 matrices.
 Large coefficients: NSaved=  7 BigCof=   21.18 CofMax=   10.00 Det=-1.27D-15
 Inversion failed.  Reducing to  6 matrices.
 Large coefficients: NSaved=  6 BigCof=   20.16 CofMax=   10.00 Det=-1.35D-15
 Inversion failed.  Reducing to  5 matrices.
 Large coefficients: NSaved=  5 BigCof=   20.44 CofMax=   10.00 Det=-1.38D-15
 Inversion failed.  Reducing to  4 matrices.
 Large coefficients: NSaved=  4 BigCof=   12.76 CofMax=   10.00 Det=-2.89D-15
 Inversion failed.  Reducing to  3 matrices.
 Large coefficients: NSaved=  3 BigCof=   11.97 CofMax=   10.00 Det=-2.98D-15
 Inversion failed.  Reducing to  2 matrices.
 Coeff-Com: -0.543D+01 0.643D+01
 Coeff:     -0.543D+01 0.643D+01
 Gap=     0.476 Goal=   None    Shift=    0.000
 Gap=     0.424 Goal=   None    Shift=    0.000
 RMSDP=7.54D-06 MaxDP=3.15D-04 DE=-3.35D-09 OVMax= 8.29D-04

 Cycle  17  Pass 1  IDiag  1:
 E= -435.137464166871     Delta-E=       -0.000000018470 Rises=F Damp=F
 DIIS: error= 4.56D-06 at cycle  17 NSaved=   3.
 NSaved= 3 IEnMin= 3 EnMin= -435.137464166871     IErMin= 3 ErrMin= 4.56D-06
 ErrMax= 4.56D-06  0.00D+00 EMaxC= 1.00D-01 BMatC= 2.73D-10 BMatP= 2.74D-10
 IDIUse=1 WtCom= 1.00D+00 WtEn= 0.00D+00
 Coeff-Com:  0.312D+01-0.690D+01 0.478D+01
 Coeff:      0.312D+01-0.690D+01 0.478D+01
 Gap=     0.476 Goal=   None    Shift=    0.000
 Gap=     0.424 Goal=   None    Shift=    0.000
 RMSDP=2.43D-05 MaxDP=1.02D-03 DE=-1.85D-08 OVMax= 2.67D-03

 Cycle  18  Pass 1  IDiag  1:
 E= -435.137464226088     Delta-E=       -0.000000059217 Rises=F Damp=F
 DIIS: error= 4.52D-06 at cycle  18 NSaved=   4.
 NSaved= 4 IEnMin= 4 EnMin= -435.137464226088     IErMin= 4 ErrMin= 4.52D-06
 ErrMax= 4.52D-06  0.00D+00 EMaxC= 1.00D-01 BMatC= 2.78D-10 BMatP= 2.73D-10
 IDIUse=1 WtCom= 1.00D+00 WtEn= 0.00D+00
 Coeff-Com:  0.384D+01-0.852D+01 0.585D+01-0.178D+00
 Coeff:      0.384D+01-0.852D+01 0.585D+01-0.178D+00
 Gap=     0.476 Goal=   None    Shift=    0.000
 Gap=     0.424 Goal=   None    Shift=    0.000
 RMSDP=1.49D-06 MaxDP=6.23D-05 DE=-5.92D-08 OVMax= 1.64D-04

 Cycle  19  Pass 1  IDiag  1:
 E= -435.137464229690     Delta-E=       -0.000000003602 Rises=F Damp=F
 DIIS: error= 4.52D-06 at cycle  19 NSaved=   5.
 NSaved= 5 IEnMin= 5 EnMin= -435.137464229690     IErMin= 5 ErrMin= 4.52D-06
 ErrMax= 4.52D-06  0.00D+00 EMaxC= 1.00D-01 BMatC= 2.83D-10 BMatP= 2.73D-10
 IDIUse=1 WtCom= 1.00D+00 WtEn= 0.00D+00
 Large coefficients: NSaved=  5 BigCof=   23.45 CofMax=   10.00 Det=-7.62D-15
 Inversion failed.  Reducing to  4 matrices.
 Large coefficients: NSaved=  4 BigCof=   23.52 CofMax=   10.00 Det=-1.92D-14
 Inversion failed.  Reducing to  3 matrices.
 Large coefficients: NSaved=  3 BigCof=   23.52 CofMax=   10.00 Det=-1.92D-14
 Inversion failed.  Reducing to  2 matrices.
 Coeff-Com:  0.448D+01-0.348D+01
 Coeff:      0.448D+01-0.348D+01
 Gap=     0.476 Goal=   None    Shift=    0.000
 Gap=     0.424 Goal=   None    Shift=    0.000
 RMSDP=6.54D-06 MaxDP=2.74D-04 DE=-3.60D-09 OVMax= 7.19D-04

 Cycle  20  Pass 1  IDiag  1:
 E= -435.137464213840     Delta-E=        0.000000015850 Rises=F Damp=F
 DIIS: error= 4.53D-06 at cycle  20 NSaved=   3.
 NSaved= 3 IEnMin= 2 EnMin= -435.137464229690     IErMin= 2 ErrMin= 4.52D-06
 ErrMax= 4.53D-06  0.00D+00 EMaxC= 1.00D-01 BMatC= 2.69D-10 BMatP= 2.78D-10
 IDIUse=1 WtCom= 1.00D+00 WtEn= 0.00D+00
 Coeff-Com: -0.239D+00 0.136D+00 0.110D+01
 Coeff:     -0.239D+00 0.136D+00 0.110D+01
 Gap=     0.476 Goal=   None    Shift=    0.000
 Gap=     0.424 Goal=   None    Shift=    0.000
 RMSDP=1.89D-07 MaxDP=7.89D-06 DE= 1.59D-08 OVMax= 2.08D-05

 Cycle  21  Pass 1  IDiag  1:
 E= -435.137464213381     Delta-E=        0.000000000459 Rises=F Damp=F
 DIIS: error= 4.53D-06 at cycle  21 NSaved=   4.
 NSaved= 4 IEnMin= 2 EnMin= -435.137464229690     IErMin= 2 ErrMin= 4.52D-06
 ErrMax= 4.53D-06  0.00D+00 EMaxC= 1.00D-01 BMatC= 2.69D-10 BMatP= 2.69D-10
 IDIUse=1 WtCom= 1.00D+00 WtEn= 0.00D+00
 Coeff-Com: -0.286D+01 0.255D+01-0.266D+01 0.397D+01
 Coeff:     -0.286D+01 0.255D+01-0.266D+01 0.397D+01
 Gap=     0.476 Goal=   None    Shift=    0.000
 Gap=     0.424 Goal=   None    Shift=    0.000
 RMSDP=1.77D-06 MaxDP=7.43D-05 DE= 4.59D-10 OVMax= 1.95D-04

 Cycle  22  Pass 1  IDiag  1:
 E= -435.137464217679     Delta-E=       -0.000000004298 Rises=F Damp=F
 DIIS: error= 4.52D-06 at cycle  22 NSaved=   5.
 NSaved= 5 IEnMin= 2 EnMin= -435.137464229690     IErMin= 2 ErrMin= 4.52D-06
 ErrMax= 4.52D-06  0.00D+00 EMaxC= 1.00D-01 BMatC= 2.68D-10 BMatP= 2.69D-10
 IDIUse=1 WtCom= 1.00D+00 WtEn= 0.00D+00
 Large coefficients: NSaved=  5 BigCof=   40.79 CofMax=   10.00 Det=-1.40D-15
 Inversion failed.  Reducing to  4 matrices.
 Coeff-Com:  0.522D+01-0.384D+01-0.704D+01 0.666D+01
 Coeff:      0.522D+01-0.384D+01-0.704D+01 0.666D+01
 Gap=     0.476 Goal=   None    Shift=    0.000
 Gap=     0.424 Goal=   None    Shift=    0.000
 RMSDP=1.16D-05 MaxDP=4.89D-04 DE=-4.30D-09 OVMax= 1.28D-03

 Cycle  23  Pass 1  IDiag  1:
 E= -435.137464245887     Delta-E=       -0.000000028208 Rises=F Damp=F
 DIIS: error= 4.50D-06 at cycle  23 NSaved=   5.
 NSaved= 5 IEnMin= 5 EnMin= -435.137464245887     IErMin= 5 ErrMin= 4.50D-06
 ErrMax= 4.50D-06  0.00D+00 EMaxC= 1.00D-01 BMatC= 2.67D-10 BMatP= 2.68D-10
 IDIUse=1 WtCom= 1.00D+00 WtEn= 0.00D+00
 Coeff-Com:  0.811D+01-0.690D+01-0.378D+01 0.465D+00 0.310D+01
 Coeff:      0.811D+01-0.690D+01-0.378D+01 0.465D+00 0.310D+01
 Gap=     0.476 Goal=   None    Shift=    0.000
 Gap=     0.424 Goal=   None    Shift=    0.000
 RMSDP=2.53D-05 MaxDP=1.06D-03 DE=-2.82D-08 OVMax= 2.78D-03

 Cycle  24  Pass 1  IDiag  1:
 E= -435.137464306608     Delta-E=       -0.000000060721 Rises=F Damp=F
 DIIS: error= 4.46D-06 at cycle  24 NSaved=   6.
 NSaved= 6 IEnMin= 6 EnMin= -435.137464306608     IErMin= 6 ErrMin= 4.46D-06
 ErrMax= 4.46D-06  0.00D+00 EMaxC= 1.00D-01 BMatC= 2.78D-10 BMatP= 2.67D-10
 IDIUse=1 WtCom= 1.00D+00 WtEn= 0.00D+00
 Large coefficients: NSaved=  6 BigCof=   25.63 CofMax=   10.00 Det=-8.00D-15
 Inversion failed.  Reducing to  5 matrices.
 Large coefficients: NSaved=  5 BigCof=   19.07 CofMax=   10.00 Det=-1.28D-14
 Inversion failed.  Reducing to  4 matrices.
 Large coefficients: NSaved=  4 BigCof=   15.33 CofMax=   10.00 Det=-2.07D-14
 Inversion failed.  Reducing to  3 matrices.
 Coeff-Com: -0.151D+01 0.112D+01 0.139D+01
 Coeff:     -0.151D+01 0.112D+01 0.139D+01
 Gap=     0.476 Goal=   None    Shift=    0.000
 Gap=     0.424 Goal=   None    Shift=    0.000
 RMSDP=2.00D-05 MaxDP=8.43D-04 DE=-6.07D-08 OVMax= 2.20D-03

 Cycle  25  Pass 1  IDiag  1:
 E= -435.137464354232     Delta-E=       -0.000000047624 Rises=F Damp=F
 DIIS: error= 4.42D-06 at cycle  25 NSaved=   4.
 NSaved= 4 IEnMin= 4 EnMin= -435.137464354232     IErMin= 4 ErrMin= 4.42D-06
 ErrMax= 4.42D-06  0.00D+00 EMaxC= 1.00D-01 BMatC= 2.78D-10 BMatP= 2.67D-10
 IDIUse=1 WtCom= 1.00D+00 WtEn= 0.00D+00
 Coeff-Com: -0.128D+01 0.117D+01 0.503D+00 0.613D+00
 Coeff:     -0.128D+01 0.117D+01 0.503D+00 0.613D+00
 Gap=     0.476 Goal=   None    Shift=    0.000
 Gap=     0.424 Goal=   None    Shift=    0.000
 RMSDP=3.91D-06 MaxDP=1.65D-04 DE=-4.76D-08 OVMax= 4.30D-04

 Cycle  26  Pass 1  IDiag  1:
 E= -435.137464363516     Delta-E=       -0.000000009284 Rises=F Damp=F
 DIIS: error= 4.42D-06 at cycle  26 NSaved=   5.
 NSaved= 5 IEnMin= 5 EnMin= -435.137464363516     IErMin= 5 ErrMin= 4.42D-06
 ErrMax= 4.42D-06  0.00D+00 EMaxC= 1.00D-01 BMatC= 2.68D-10 BMatP= 2.67D-10
 IDIUse=1 WtCom= 1.00D+00 WtEn= 0.00D+00
 Large coefficients: NSaved=  5 BigCof=   17.11 CofMax=   10.00 Det=-1.24D-13
 Inversion failed.  Reducing to  4 matrices.
 Large coefficients: NSaved=  4 BigCof=   10.66 CofMax=   10.00 Det=-4.13D-13
 Inversion failed.  Reducing to  3 matrices.
 Coeff-Com: -0.368D+01-0.111D+01 0.579D+01
 Coeff:     -0.368D+01-0.111D+01 0.579D+01
 Gap=     0.476 Goal=   None    Shift=    0.000
 Gap=     0.424 Goal=   None    Shift=    0.000
 RMSDP=9.25D-05 MaxDP=3.92D-03 DE=-9.28D-09 OVMax= 1.02D-02

 Cycle  27  Pass 1  IDiag  1:
 E= -435.137464578084     Delta-E=       -0.000000214568 Rises=F Damp=F
 DIIS: error= 6.65D-06 at cycle  27 NSaved=   4.
 NSaved= 4 IEnMin= 4 EnMin= -435.137464578084     IErMin= 3 ErrMin= 4.42D-06
 ErrMax= 6.65D-06  0.00D+00 EMaxC= 1.00D-01 BMatC= 1.92D-09 BMatP= 2.68D-10
 IDIUse=1 WtCom= 1.00D+00 WtEn= 0.00D+00
 Large coefficients: NSaved=  4 BigCof=   22.99 CofMax=   10.00 Det=-7.66D-14
 Inversion failed.  Reducing to  3 matrices.
 Coeff-Com: -0.794D+01 0.876D+01 0.176D+00
 Coeff:     -0.794D+01 0.876D+01 0.176D+00
 Gap=     0.476 Goal=   None    Shift=    0.000
 Gap=     0.424 Goal=   None    Shift=    0.000
 RMSDP=4.50D-05 MaxDP=1.91D-03 DE=-2.15D-07 OVMax= 4.95D-03

 Cycle  28  Pass 1  IDiag  1:
 E= -435.137464474895     Delta-E=        0.000000103189 Rises=F Damp=F
 DIIS: error= 4.33D-06 at cycle  28 NSaved=   4.
 NSaved= 4 IEnMin= 3 EnMin= -435.137464578084     IErMin= 4 ErrMin= 4.33D-06
 ErrMax= 4.33D-06  0.00D+00 EMaxC= 1.00D-01 BMatC= 2.61D-10 BMatP= 2.68D-10
 IDIUse=1 WtCom= 1.00D+00 WtEn= 0.00D+00
 Large coefficients: NSaved=  4 BigCof=   77.81 CofMax=   10.00 Det=-1.94D-14
 Inversion failed.  Reducing to  3 matrices.
 Coeff-Com: -0.113D+00-0.814D-01 0.119D+01
 Coeff:     -0.113D+00-0.814D-01 0.119D+01
 Gap=     0.476 Goal=   None    Shift=    0.000
 Gap=     0.424 Goal=   None    Shift=    0.000
 RMSDP=1.84D-06 MaxDP=7.82D-05 DE= 1.03D-07 OVMax= 2.02D-04

 Cycle  29  Pass 1  IDiag  1:
 E= -435.137464479171     Delta-E=       -0.000000004276 Rises=F Damp=F
 DIIS: error= 4.33D-06 at cycle  29 NSaved=   4.
 NSaved= 4 IEnMin= 2 EnMin= -435.137464578084     IErMin= 4 ErrMin= 4.33D-06
 ErrMax= 4.33D-06  0.00D+00 EMaxC= 1.00D-01 BMatC= 2.51D-10 BMatP= 2.61D-10
 IDIUse=1 WtCom= 1.00D+00 WtEn= 0.00D+00
 Coeff-Com: -0.714D+01 0.130D+00 0.295D+01 0.505D+01
 Coeff:     -0.714D+01 0.130D+00 0.295D+01 0.505D+01
 Gap=     0.476 Goal=   None    Shift=    0.000
 Gap=     0.424 Goal=   None    Shift=    0.000
 RMSDP=3.51D-04 MaxDP=1.51D-02 DE=-4.28D-09 OVMax= 3.86D-02

 Cycle  30  Pass 1  IDiag  1:
 E= -435.137465166998     Delta-E=       -0.000000687828 Rises=F Damp=F
 DIIS: error= 1.01D-04 at cycle  30 NSaved=   5.
 NSaved= 5 IEnMin= 5 EnMin= -435.137465166998     IErMin= 4 ErrMin= 4.33D-06
 ErrMax= 1.01D-04  0.00D+00 EMaxC= 1.00D-01 BMatC= 2.93D-07 BMatP= 2.51D-10
 IDIUse=1 WtCom= 1.00D+00 WtEn= 0.00D+00
 Coeff-Com: -0.718D+01 0.157D+00 0.296D+01 0.507D+01-0.188D-02
 Coeff:     -0.718D+01 0.157D+00 0.296D+01 0.507D+01-0.188D-02
 Gap=     0.476 Goal=   None    Shift=    0.000
 Gap=     0.424 Goal=   None    Shift=    0.000
 RMSDP=2.52D-06 MaxDP=1.10D-04 DE=-6.88D-07 OVMax= 2.77D-04

 Cycle  31  Pass 1  IDiag  1:
 E= -435.137465169988     Delta-E=       -0.000000002990 Rises=F Damp=F
 DIIS: error= 1.03D-04 at cycle  31 NSaved=   6.
 NSaved= 6 IEnMin= 6 EnMin= -435.137465169988     IErMin= 4 ErrMin= 4.33D-06
 ErrMax= 1.03D-04  0.00D+00 EMaxC= 1.00D-01 BMatC= 3.01D-07 BMatP= 2.51D-10
 IDIUse=1 WtCom= 1.00D+00 WtEn= 0.00D+00
 Large coefficients: NSaved=  6 BigCof=   54.85 CofMax=   10.00 Det=-1.57D-14
 Inversion failed.  Reducing to  5 matrices.
 Coeff-Com: -0.753D+00 0.729D+00 0.110D+01-0.887D+01 0.879D+01
 Coeff:     -0.753D+00 0.729D+00 0.110D+01-0.887D+01 0.879D+01
 Gap=     0.476 Goal=   None    Shift=    0.000
 Gap=     0.424 Goal=   None    Shift=    0.000
 RMSDP=3.93D-04 MaxDP=1.69D-02 DE=-2.99D-09 OVMax= 4.32D-02

 Cycle  32  Pass 1  IDiag  1:
 E= -435.137464386915     Delta-E=        0.000000783073 Rises=F Damp=F
 DIIS: error= 4.42D-06 at cycle  32 NSaved=   6.
 NSaved= 6 IEnMin= 5 EnMin= -435.137465169988     IErMin= 3 ErrMin= 4.33D-06
 ErrMax= 4.42D-06  0.00D+00 EMaxC= 1.00D-01 BMatC= 3.68D-10 BMatP= 2.51D-10
 IDIUse=1 WtCom= 1.00D+00 WtEn= 0.00D+00
 Large coefficients: NSaved=  6 BigCof=   17.88 CofMax=   10.00 Det=-1.84D-14
 Inversion failed.  Reducing to  5 matrices.
 Coeff-Com: -0.177D+00 0.491D+00-0.875D+01 0.865D+01 0.784D+00
 Coeff:     -0.177D+00 0.491D+00-0.875D+01 0.865D+01 0.784D+00
 Gap=     0.476 Goal=   None    Shift=    0.000
 Gap=     0.424 Goal=   None    Shift=    0.000
 RMSDP=1.18D-05 MaxDP=5.01D-04 DE= 7.83D-07 OVMax= 1.30D-03

 Cycle  33  Pass 1  IDiag  1:
 E= -435.137464358922     Delta-E=        0.000000027993 Rises=F Damp=F
 DIIS: error= 4.44D-06 at cycle  33 NSaved=   6.
 NSaved= 6 IEnMin= 4 EnMin= -435.137465169988     IErMin= 2 ErrMin= 4.33D-06
 ErrMax= 4.44D-06  0.00D+00 EMaxC= 1.00D-01 BMatC= 2.81D-10 BMatP= 2.51D-10
 IDIUse=1 WtCom= 1.00D+00 WtEn= 0.00D+00
 Large coefficients: NSaved=  6 BigCof=   65.76 CofMax=   10.00 Det=-1.37D-14
 Inversion failed.  Reducing to  5 matrices.
 Large coefficients: NSaved=  5 BigCof=   10.65 CofMax=   10.00 Det=-2.53D-14
 Inversion failed.  Reducing to  4 matrices.
 Coeff-Com:  0.303D+01-0.288D+01 0.969D+01-0.884D+01
 Coeff:      0.303D+01-0.288D+01 0.969D+01-0.884D+01
 Gap=     0.476 Goal=   None    Shift=    0.000
 Gap=     0.424 Goal=   None    Shift=    0.000
 RMSDP=1.67D-04 MaxDP=7.11D-03 DE= 2.80D-08 OVMax= 1.84D-02

 Cycle  34  Pass 1  IDiag  1:
 E= -435.137464741312     Delta-E=       -0.000000382390 Rises=F Damp=F
 DIIS: error= 5.35D-06 at cycle  34 NSaved=   5.
 NSaved= 5 IEnMin= 2 EnMin= -435.137465169988     IErMin= 3 ErrMin= 4.42D-06
 ErrMax= 5.35D-06  0.00D+00 EMaxC= 1.00D-01 BMatC= 1.27D-09 BMatP= 2.81D-10
 IDIUse=1 WtCom= 1.00D+00 WtEn= 0.00D+00
 Large coefficients: NSaved=  5 BigCof=   28.60 CofMax=   10.00 Det=-3.96D-14
 Inversion failed.  Reducing to  4 matrices.
 Large coefficients: NSaved=  4 BigCof=   23.99 CofMax=   10.00 Det=-4.17D-14
 Inversion failed.  Reducing to  3 matrices.
 Coeff-Com: -0.612D-01 0.149D-01 0.105D+01
 Coeff:     -0.612D-01 0.149D-01 0.105D+01
 Gap=     0.476 Goal=   None    Shift=    0.000
 Gap=     0.424 Goal=   None    Shift=    0.000
 RMSDP=1.69D-05 MaxDP=7.25D-04 DE=-3.82D-07 OVMax= 1.86D-03

 Cycle  35  Pass 1  IDiag  1:
 E= -435.137464703995     Delta-E=        0.000000037317 Rises=F Damp=F
 DIIS: error= 4.14D-06 at cycle  35 NSaved=   4.
 NSaved= 4 IEnMin= 1 EnMin= -435.137465169988     IErMin= 4 ErrMin= 4.14D-06
 ErrMax= 4.14D-06  0.00D+00 EMaxC= 1.00D-01 BMatC= 3.96D-10 BMatP= 2.81D-10
 IDIUse=1 WtCom= 1.00D+00 WtEn= 0.00D+00
 Coeff-Com: -0.107D+00-0.123D+01 0.111D+01 0.122D+01
 Coeff:     -0.107D+00-0.123D+01 0.111D+01 0.122D+01
 Gap=     0.476 Goal=   None    Shift=    0.000
 Gap=     0.424 Goal=   None    Shift=    0.000
 RMSDP=1.77D-04 MaxDP=7.62D-03 DE= 3.73D-08 OVMax= 1.94D-02

 Cycle  36  Pass 1  IDiag  1:
 E= -435.137465066860     Delta-E=       -0.000000362865 Rises=F Damp=F
 DIIS: error= 4.64D-05 at cycle  36 NSaved=   5.
 NSaved= 5 IEnMin= 1 EnMin= -435.137465169988     IErMin= 4 ErrMin= 4.14D-06
 ErrMax= 4.64D-05  0.00D+00 EMaxC= 1.00D-01 BMatC= 6.37D-08 BMatP= 2.81D-10
 IDIUse=1 WtCom= 1.00D+00 WtEn= 0.00D+00
 Coeff-Com:  0.123D+01-0.733D+01 0.536D+01 0.555D+01-0.381D+01
 Coeff:      0.123D+01-0.733D+01 0.536D+01 0.555D+01-0.381D+01
 Gap=     0.475 Goal=   None    Shift=    0.000
 Gap=     0.424 Goal=   None    Shift=    0.000
 RMSDP=6.42D-04 MaxDP=2.86D-02 DE=-3.63D-07 OVMax= 7.06D-02

 Cycle  37  Pass 1  IDiag  1:
 E= -435.137463540110     Delta-E=        0.000001526750 Rises=F Damp=F
 DIIS: error= 6.69D-04 at cycle  37 NSaved=   6.
 NSaved= 6 IEnMin= 1 EnMin= -435.137465169988     IErMin= 4 ErrMin= 4.14D-06
 ErrMax= 6.69D-04  0.00D+00 EMaxC= 1.00D-01 BMatC= 1.15D-05 BMatP= 2.81D-10
 IDIUse=1 WtCom= 1.00D+00 WtEn= 0.00D+00
 Large coefficients: NSaved=  6 BigCof=   12.20 CofMax=   10.00 Det=-1.37D-12
 Inversion failed.  Reducing to  5 matrices.
 Coeff-Com: -0.185D+01-0.275D+00-0.338D+00 0.342D+01 0.503D-01
 Coeff:     -0.185D+01-0.275D+00-0.338D+00 0.342D+01 0.503D-01
 Gap=     0.476 Goal=   None    Shift=    0.000
 Gap=     0.424 Goal=   None    Shift=    0.000
 RMSDP=6.52D-04 MaxDP=2.90D-02 DE= 1.53D-06 OVMax= 7.17D-02

 Cycle  38  Pass 1  IDiag  1:
 E= -435.137465061627     Delta-E=       -0.000001521518 Rises=F Damp=F
 DIIS: error= 5.14D-06 at cycle  38 NSaved=   6.
 NSaved= 6 IEnMin= 1 EnMin= -435.137465169988     IErMin= 3 ErrMin= 4.14D-06
 ErrMax= 5.14D-06  0.00D+00 EMaxC= 1.00D-01 BMatC= 1.18D-09 BMatP= 3.96D-10
 IDIUse=1 WtCom= 1.00D+00 WtEn= 0.00D+00
 Coeff-Com:  0.682D+00-0.116D+00-0.130D+01-0.165D+01-0.134D-01 0.339D+01
 Coeff:      0.682D+00-0.116D+00-0.130D+01-0.165D+01-0.134D-01 0.339D+01
 Gap=     0.476 Goal=   None    Shift=    0.000
 Gap=     0.424 Goal=   None    Shift=    0.000
 RMSDP=2.69D-04 MaxDP=1.18D-02 DE=-1.52D-06 OVMax= 2.96D-02

 Cycle  39  Pass 1  IDiag  1:
 E= -435.137465537402     Delta-E=       -0.000000475775 Rises=F Damp=F
 DIIS: error= 8.15D-05 at cycle  39 NSaved=   7.
 NSaved= 7 IEnMin= 7 EnMin= -435.137465537402     IErMin= 3 ErrMin= 4.14D-06
 ErrMax= 8.15D-05  0.00D+00 EMaxC= 1.00D-01 BMatC= 1.85D-07 BMatP= 3.96D-10
 IDIUse=1 WtCom= 1.00D+00 WtEn= 0.00D+00
 Coeff-Com:  0.138D+01 0.485D+00-0.431D+00-0.399D+01-0.801D-01 0.265D+01
 Coeff-Com:  0.983D+00
 Coeff:      0.138D+01 0.485D+00-0.431D+00-0.399D+01-0.801D-01 0.265D+01
 Coeff:      0.983D+00
 Gap=     0.476 Goal=   None    Shift=    0.000
 Gap=     0.424 Goal=   None    Shift=    0.000
 RMSDP=2.64D-05 MaxDP=1.19D-03 DE=-4.76D-07 OVMax= 2.90D-03

 Cycle  40  Pass 1  IDiag  1:
 E= -435.137465620794     Delta-E=       -0.000000083392 Rises=F Damp=F
 DIIS: error= 2.95D-05 at cycle  40 NSaved=   8.
 NSaved= 8 IEnMin= 8 EnMin= -435.137465620794     IErMin= 3 ErrMin= 4.14D-06
 ErrMax= 2.95D-05  0.00D+00 EMaxC= 1.00D-01 BMatC= 2.49D-08 BMatP= 3.96D-10
 IDIUse=1 WtCom= 1.00D+00 WtEn= 0.00D+00
 Coeff-Com:  0.710D+00-0.922D+00-0.588D+00 0.199D+01 0.978D-01-0.341D+01
 Coeff-Com: -0.576D+01 0.888D+01
 Coeff:      0.710D+00-0.922D+00-0.588D+00 0.199D+01 0.978D-01-0.341D+01
 Coeff:     -0.576D+01 0.888D+01
 Gap=     0.475 Goal=   None    Shift=    0.000
 Gap=     0.424 Goal=   None    Shift=    0.000
 RMSDP=1.12D-03 MaxDP=5.17D-02 DE=-8.34D-08 OVMax= 1.23D-01

 Cycle  41  Pass 1  IDiag  1:
 E= -435.137457080576     Delta-E=        0.000008540218 Rises=F Damp=F
 DIIS: error= 1.36D-03 at cycle  41 NSaved=   9.
 NSaved= 9 IEnMin= 8 EnMin= -435.137465620794     IErMin= 3 ErrMin= 4.14D-06
 ErrMax= 1.36D-03  0.00D+00 EMaxC= 1.00D-01 BMatC= 4.30D-05 BMatP= 3.96D-10
 IDIUse=1 WtCom= 1.00D+00 WtEn= 0.00D+00
 Coeff-Com: -0.185D+00-0.107D+01-0.351D+00 0.349D+01 0.261D+00-0.430D+01
 Coeff-Com: -0.665D+01 0.983D+01-0.278D-01
 Coeff:     -0.185D+00-0.107D+01-0.351D+00 0.349D+01 0.261D+00-0.430D+01
 Coeff:     -0.665D+01 0.983D+01-0.278D-01
 Gap=     0.474 Goal=   None    Shift=    0.000
 Gap=     0.424 Goal=   None    Shift=    0.000
 RMSDP=2.56D-05 MaxDP=1.21D-03 DE= 8.54D-06 OVMax= 2.81D-03

 Cycle  42  Pass 1  IDiag  1:
 E= -435.137456527434     Delta-E=        0.000000553142 Rises=F Damp=F
 DIIS: error= 1.40D-03 at cycle  42 NSaved=  10.
 NSaved=10 IEnMin= 8 EnMin= -435.137465620794     IErMin= 3 ErrMin= 4.14D-06
 ErrMax= 1.40D-03  0.00D+00 EMaxC= 1.00D-01 BMatC= 4.55D-05 BMatP= 3.96D-10
 IDIUse=1 WtCom= 1.00D+00 WtEn= 0.00D+00
 Coeff-Com: -0.268D+00-0.184D+01-0.122D+01 0.680D+01-0.418D+00-0.527D+01
 Coeff-Com: -0.665D+01 0.951D+01 0.505D+01-0.469D+01
 Coeff:     -0.268D+00-0.184D+01-0.122D+01 0.680D+01-0.418D+00-0.527D+01
 Coeff:     -0.665D+01 0.951D+01 0.505D+01-0.469D+01
 Gap=     0.473 Goal=   None    Shift=    0.000
 Gap=     0.424 Goal=   None    Shift=    0.000
 RMSDP=1.55D-04 MaxDP=7.29D-03 DE= 5.53D-07 OVMax= 1.70D-02

 Cycle  43  Pass 1  IDiag  1:
 E= -435.137450779862     Delta-E=        0.000005747571 Rises=F Damp=F
 DIIS: error= 1.75D-03 at cycle  43 NSaved=  11.
 NSaved=11 IEnMin= 8 EnMin= -435.137465620794     IErMin= 3 ErrMin= 4.14D-06
 ErrMax= 1.75D-03  0.00D+00 EMaxC= 1.00D-01 BMatC= 7.09D-05 BMatP= 3.96D-10
 IDIUse=1 WtCom= 1.00D+00 WtEn= 0.00D+00
 Coeff-Com: -0.534D+00-0.182D+01-0.103D+01 0.696D+01-0.302D+00-0.560D+01
 Coeff-Com: -0.690D+01 0.992D+01 0.539D+01-0.522D+01 0.131D+00
 Coeff:     -0.534D+00-0.182D+01-0.103D+01 0.696D+01-0.302D+00-0.560D+01
 Coeff:     -0.690D+01 0.992D+01 0.539D+01-0.522D+01 0.131D+00
 Gap=     0.473 Goal=   None    Shift=    0.000
 Gap=     0.424 Goal=   None    Shift=    0.000
 RMSDP=6.74D-07 MaxDP=2.67D-05 DE= 5.75D-06 OVMax= 6.62D-05

 Cycle  44  Pass 1  IDiag  1:
 E= -435.137450523816     Delta-E=        0.000000256047 Rises=F Damp=F
 DIIS: error= 1.77D-03 at cycle  44 NSaved=  12.
 NSaved=12 IEnMin= 8 EnMin= -435.137465620794     IErMin= 3 ErrMin= 4.14D-06
 ErrMax= 1.77D-03  0.00D+00 EMaxC= 1.00D-01 BMatC= 7.20D-05 BMatP= 3.96D-10
 IDIUse=1 WtCom= 1.00D+00 WtEn= 0.00D+00
 Large coefficients: NSaved= 12 BigCof=   41.61 CofMax=   10.00 Det=-4.81D-15
 Inversion failed.  Reducing to 11 matrices.
 Large coefficients: NSaved= 11 BigCof=   25.00 CofMax=   10.00 Det=-1.95D-14
 Inversion failed.  Reducing to 10 matrices.
 Coeff-Com: -0.212D+00-0.109D+01-0.384D+00 0.357D+01 0.251D+00-0.425D+01
 Coeff-Com: -0.665D+01 0.977D+01 0.100D+01-0.101D+01
 Coeff:     -0.212D+00-0.109D+01-0.384D+00 0.357D+01 0.251D+00-0.425D+01
 Coeff:     -0.665D+01 0.977D+01 0.100D+01-0.101D+01
 Gap=     0.474 Goal=   None    Shift=    0.000
 Gap=     0.424 Goal=   None    Shift=    0.000
 RMSDP=1.51D-04 MaxDP=7.11D-03 DE= 2.56D-07 OVMax= 1.66D-02

 Cycle  45  Pass 1  IDiag  1:
 E= -435.137456610650     Delta-E=       -0.000006086834 Rises=F Damp=F
 DIIS: error= 1.39D-03 at cycle  45 NSaved=  11.
 NSaved=11 IEnMin= 8 EnMin= -435.137465620794     IErMin= 3 ErrMin= 4.14D-06
 ErrMax= 1.39D-03  0.00D+00 EMaxC= 1.00D-01 BMatC= 4.52D-05 BMatP= 3.96D-10
 IDIUse=1 WtCom= 1.00D+00 WtEn= 0.00D+00
 Large coefficients: NSaved= 11 BigCof=   49.19 CofMax=   10.00 Det=-7.76D-15
 Inversion failed.  Reducing to 10 matrices.
 Coeff-Com:  0.108D+01-0.138D+01-0.161D+01 0.372D+01-0.516D+00-0.285D+01
 Coeff-Com: -0.543D+01 0.760D+01-0.660D+00 0.106D+01
 Coeff:      0.108D+01-0.138D+01-0.161D+01 0.372D+01-0.516D+00-0.285D+01
 Coeff:     -0.543D+01 0.760D+01-0.660D+00 0.106D+01
 Gap=     0.474 Goal=   None    Shift=    0.000
 Gap=     0.424 Goal=   None    Shift=    0.000
 RMSDP=4.45D-05 MaxDP=2.10D-03 DE=-6.09D-06 OVMax= 4.88D-03

 Cycle  46  Pass 1  IDiag  1:
 E= -435.137456217833     Delta-E=        0.000000392817 Rises=F Damp=F
 DIIS: error= 1.42D-03 at cycle  46 NSaved=  11.
 NSaved=11 IEnMin= 8 EnMin= -435.137465620794     IErMin= 3 ErrMin= 4.14D-06
 ErrMax= 1.42D-03  0.00D+00 EMaxC= 1.00D-01 BMatC= 4.70D-05 BMatP= 3.96D-10
 IDIUse=1 WtCom= 1.00D+00 WtEn= 0.00D+00
 Large coefficients: NSaved= 11 BigCof=   12.49 CofMax=   10.00 Det=-1.03D-13
 Inversion failed.  Reducing to 10 matrices.
 Coeff-Com:  0.986D+00-0.144D+01-0.137D+01 0.436D+01-0.518D+00-0.415D+01
 Coeff-Com: -0.591D+01 0.877D+01 0.282D+01-0.255D+01
 Coeff:      0.986D+00-0.144D+01-0.137D+01 0.436D+01-0.518D+00-0.415D+01
 Coeff:     -0.591D+01 0.877D+01 0.282D+01-0.255D+01
 Gap=     0.473 Goal=   None    Shift=    0.000
 Gap=     0.424 Goal=   None    Shift=    0.000
 RMSDP=2.31D-05 MaxDP=1.09D-03 DE= 3.93D-07 OVMax= 2.51D-03

 Cycle  47  Pass 1  IDiag  1:
 E= -435.137454140313     Delta-E=        0.000002077520 Rises=F Damp=F
 DIIS: error= 1.55D-03 at cycle  47 NSaved=  11.
 NSaved=11 IEnMin= 8 EnMin= -435.137465620794     IErMin= 3 ErrMin= 4.14D-06
 ErrMax= 1.55D-03  0.00D+00 EMaxC= 1.00D-01 BMatC= 5.60D-05 BMatP= 3.96D-10
 IDIUse=1 WtCom= 1.00D+00 WtEn= 0.00D+00
 Large coefficients: NSaved= 11 BigCof=   18.64 CofMax=   10.00 Det=-3.47D-14
 Inversion failed.  Reducing to 10 matrices.
 Coeff-Com: -0.187D+00-0.109D+01-0.365D+00 0.361D+01 0.241D+00-0.440D+01
 Coeff-Com: -0.668D+01 0.989D+01-0.819D-01 0.568D-01
 Coeff:     -0.187D+00-0.109D+01-0.365D+00 0.361D+01 0.241D+00-0.440D+01
 Coeff:     -0.668D+01 0.989D+01-0.819D-01 0.568D-01
 Gap=     0.474 Goal=   None    Shift=    0.000
 Gap=     0.424 Goal=   None    Shift=    0.000
 RMSDP=2.37D-05 MaxDP=1.10D-03 DE= 2.08D-06 OVMax= 2.58D-03

 Cycle  48  Pass 1  IDiag  1:
 E= -435.137456303392     Delta-E=       -0.000002163079 Rises=F Damp=F
 DIIS: error= 1.41D-03 at cycle  48 NSaved=  11.
 NSaved=11 IEnMin= 8 EnMin= -435.137465620794     IErMin= 3 ErrMin= 4.14D-06
 ErrMax= 1.41D-03  0.00D+00 EMaxC= 1.00D-01 BMatC= 4.65D-05 BMatP= 3.96D-10
 IDIUse=1 WtCom= 1.00D+00 WtEn= 0.00D+00
 Large coefficients: NSaved= 11 BigCof=   18.07 CofMax=   10.00 Det=-1.01D-13
 Inversion failed.  Reducing to 10 matrices.
 Coeff-Com: -0.192D+00-0.108D+01-0.391D+00 0.352D+01 0.249D+00-0.420D+01
 Coeff-Com: -0.663D+01 0.973D+01-0.153D+00 0.147D+00
 Coeff:     -0.192D+00-0.108D+01-0.391D+00 0.352D+01 0.249D+00-0.420D+01
 Coeff:     -0.663D+01 0.973D+01-0.153D+00 0.147D+00
 Gap=     0.474 Goal=   None    Shift=    0.000
 Gap=     0.424 Goal=   None    Shift=    0.000
 RMSDP=7.48D-07 MaxDP=4.88D-05 DE=-2.16D-06 OVMax= 5.40D-05

 Cycle  49  Pass 1  IDiag  1:
 E= -435.137456684531     Delta-E=       -0.000000381139 Rises=F Damp=F
 DIIS: error= 1.39D-03 at cycle  49 NSaved=  11.
 NSaved=11 IEnMin= 8 EnMin= -435.137465620794     IErMin= 3 ErrMin= 4.14D-06
 ErrMax= 1.39D-03  0.00D+00 EMaxC= 1.00D-01 BMatC= 4.48D-05 BMatP= 3.96D-10
 IDIUse=1 WtCom= 1.00D+00 WtEn= 0.00D+00
 Coeff-Com: -0.198D+00-0.108D+01-0.385D+00 0.352D+01 0.253D+00-0.421D+01
 Coeff-Com: -0.663D+01 0.973D+01-0.126D+00-0.639D-02 0.125D+00
 Coeff:     -0.198D+00-0.108D+01-0.385D+00 0.352D+01 0.253D+00-0.421D+01
 Coeff:     -0.663D+01 0.973D+01-0.126D+00-0.639D-02 0.125D+00
 Gap=     0.474 Goal=   None    Shift=    0.000
 Gap=     0.424 Goal=   None    Shift=    0.000
 RMSDP=8.93D-09 MaxDP=5.36D-07 DE=-3.81D-07 OVMax= 7.14D-07

 Density matrix is not changing but DIIS error= 1.39D-03 CofLast= 1.25D-01.
 Cycle  50  Pass 1  IDiag  1:
 E= -435.137456688633     Delta-E=       -0.000000004102 Rises=F Damp=F
 DIIS: error= 1.38D-03 at cycle   1 NSaved=   1.
 NSaved= 1 IEnMin= 1 EnMin= -435.137456688633     IErMin= 1 ErrMin= 1.38D-03
 ErrMax= 1.38D-03  0.00D+00 EMaxC= 1.00D+00 BMatC= 4.48D-05 BMatP= 4.48D-05
 IDIUse=1 WtCom= 1.00D+00 WtEn= 0.00D+00
 Coeff-Com:  0.100D+01
 Coeff:      0.100D+01
 Gap=     0.475 Goal=   None    Shift=    0.000
 Gap=     0.423 Goal=   None    Shift=    0.000
 RMSDP=2.75D-05 MaxDP=1.87D-03 DE=-4.10D-09 OVMax= 1.48D-03

 Cycle  51  Pass 1  IDiag  1:
 E= -435.137465769567     Delta-E=       -0.000009080934 Rises=F Damp=F
 DIIS: error= 3.31D-04 at cycle  51 NSaved=   2.
 NSaved= 2 IEnMin= 2 EnMin= -435.137465769567     IErMin= 2 ErrMin= 3.31D-04
 ErrMax= 3.31D-04  0.00D+00 EMaxC= 1.00D+00 BMatC= 4.71D-06 BMatP= 4.48D-05
 IDIUse=1 WtCom= 1.00D+00 WtEn= 0.00D+00
 Coeff-Com:  0.475D-02 0.995D+00
 Coeff:      0.475D-02 0.995D+00
 Gap=     0.476 Goal=   None    Shift=    0.000
 Gap=     0.424 Goal=   None    Shift=    0.000
 RMSDP=9.63D-06 MaxDP=4.48D-04 DE=-9.08D-06 OVMax= 3.51D-04

 Cycle  52  Pass 1  IDiag  1:
 E= -435.137466770548     Delta-E=       -0.000001000981 Rises=F Damp=F
 DIIS: error= 2.08D-04 at cycle  52 NSaved=   3.
 NSaved= 3 IEnMin= 3 EnMin= -435.137466770548     IErMin= 3 ErrMin= 2.08D-04
 ErrMax= 2.08D-04  0.00D+00 EMaxC= 1.00D+00 BMatC= 6.00D-07 BMatP= 4.71D-06
 IDIUse=1 WtCom= 1.00D+00 WtEn= 0.00D+00
 Coeff-Com: -0.100D+00 0.545D-01 0.105D+01
 Coeff:     -0.100D+00 0.545D-01 0.105D+01
 Gap=     0.476 Goal=   None    Shift=    0.000
 Gap=     0.424 Goal=   None    Shift=    0.000
 RMSDP=4.37D-06 MaxDP=3.23D-04 DE=-1.00D-06 OVMax= 2.56D-04

 Cycle  53  Pass 1  IDiag  1:
 E= -435.137466944243     Delta-E=       -0.000000173696 Rises=F Damp=F
 DIIS: error= 3.86D-05 at cycle  53 NSaved=   4.
 NSaved= 4 IEnMin= 4 EnMin= -435.137466944243     IErMin= 4 ErrMin= 3.86D-05
 ErrMax= 3.86D-05  0.00D+00 EMaxC= 1.00D+00 BMatC= 3.82D-08 BMatP= 6.00D-07
 IDIUse=1 WtCom= 1.00D+00 WtEn= 0.00D+00
 Coeff-Com:  0.532D-01-0.691D-01-0.575D+00 0.159D+01
 Coeff:      0.532D-01-0.691D-01-0.575D+00 0.159D+01
 Gap=     0.476 Goal=   None    Shift=    0.000
 Gap=     0.424 Goal=   None    Shift=    0.000
 RMSDP=1.76D-06 MaxDP=9.66D-05 DE=-1.74D-07 OVMax= 7.68D-05

 Cycle  54  Pass 1  IDiag  1:
 E= -435.137466959589     Delta-E=       -0.000000015345 Rises=F Damp=F
 DIIS: error= 3.84D-06 at cycle  54 NSaved=   5.
 NSaved= 5 IEnMin= 5 EnMin= -435.137466959589     IErMin= 5 ErrMin= 3.84D-06
 ErrMax= 3.84D-06  0.00D+00 EMaxC= 1.00D+00 BMatC= 7.27D-10 BMatP= 3.82D-08
 IDIUse=1 WtCom= 1.00D+00 WtEn= 0.00D+00
 Coeff-Com: -0.124D-01 0.177D-01 0.138D+00-0.454D+00 0.131D+01
 Coeff:     -0.124D-01 0.177D-01 0.138D+00-0.454D+00 0.131D+01
 Gap=     0.476 Goal=   None    Shift=    0.000
 Gap=     0.424 Goal=   None    Shift=    0.000
 RMSDP=2.21D-07 MaxDP=8.90D-06 DE=-1.53D-08 OVMax= 7.90D-06

 Cycle  55  Pass 1  IDiag  1:
 E= -435.137466959887     Delta-E=       -0.000000000299 Rises=F Damp=F
 DIIS: error= 1.19D-06 at cycle  55 NSaved=   6.
 NSaved= 6 IEnMin= 6 EnMin= -435.137466959887     IErMin= 6 ErrMin= 1.19D-06
 ErrMax= 1.19D-06  0.00D+00 EMaxC= 1.00D+00 BMatC= 6.04D-11 BMatP= 7.27D-10
 IDIUse=1 WtCom= 1.00D+00 WtEn= 0.00D+00
 Coeff-Com:  0.159D-02-0.250D-02-0.192D-01 0.797D-01-0.516D+00 0.146D+01
 Coeff:      0.159D-02-0.250D-02-0.192D-01 0.797D-01-0.516D+00 0.146D+01
 Gap=     0.476 Goal=   None    Shift=    0.000
 Gap=     0.424 Goal=   None    Shift=    0.000
 RMSDP=7.66D-08 MaxDP=3.50D-06 DE=-2.99D-10 OVMax= 4.74D-06

 Cycle  56  Pass 1  IDiag  1:
 E= -435.137466959930     Delta-E=       -0.000000000043 Rises=F Damp=F
 DIIS: error= 1.01D-06 at cycle  56 NSaved=   7.
 NSaved= 7 IEnMin= 7 EnMin= -435.137466959930     IErMin= 7 ErrMin= 1.01D-06
 ErrMax= 1.01D-06  0.00D+00 EMaxC= 1.00D+00 BMatC= 1.42D-11 BMatP= 6.04D-11
 IDIUse=1 WtCom= 1.00D+00 WtEn= 0.00D+00
 Coeff-Com:  0.399D-03-0.608D-03-0.469D-02 0.182D-01-0.101D+00 0.246D+00
 Coeff-Com:  0.841D+00
 Coeff:      0.399D-03-0.608D-03-0.469D-02 0.182D-01-0.101D+00 0.246D+00
 Coeff:      0.841D+00
 Gap=     0.476 Goal=   None    Shift=    0.000
 Gap=     0.424 Goal=   None    Shift=    0.000
 RMSDP=2.44D-08 MaxDP=1.13D-06 DE=-4.26D-11 OVMax= 2.64D-06

 Cycle  57  Pass 1  IDiag  1:
 E= -435.137466959943     Delta-E=       -0.000000000013 Rises=F Damp=F
 DIIS: error= 1.01D-06 at cycle  57 NSaved=   8.
 NSaved= 8 IEnMin= 8 EnMin= -435.137466959943     IErMin= 8 ErrMin= 1.01D-06
 ErrMax= 1.01D-06  0.00D+00 EMaxC= 1.00D+00 BMatC= 1.34D-11 BMatP= 1.42D-11
 IDIUse=1 WtCom= 1.00D+00 WtEn= 0.00D+00
 Coeff-Com: -0.271D-03 0.424D-03 0.330D-02-0.139D-01 0.918D-01-0.264D+00
 Coeff-Com:  0.109D+00 0.107D+01
 Coeff:     -0.271D-03 0.424D-03 0.330D-02-0.139D-01 0.918D-01-0.264D+00
 Coeff:      0.109D+00 0.107D+01
 Gap=     0.476 Goal=   None    Shift=    0.000
 Gap=     0.424 Goal=   None    Shift=    0.000
 RMSDP=3.50D-08 MaxDP=1.64D-06 DE=-1.25D-11 OVMax= 3.84D-06

 Cycle  58  Pass 1  IDiag  1:
 E= -435.137466959962     Delta-E=       -0.000000000019 Rises=F Damp=F
 DIIS: error= 1.01D-06 at cycle  58 NSaved=   9.
 NSaved= 9 IEnMin= 9 EnMin= -435.137466959962     IErMin= 9 ErrMin= 1.01D-06
 ErrMax= 1.01D-06  0.00D+00 EMaxC= 1.00D+00 BMatC= 1.33D-11 BMatP= 1.34D-11
 IDIUse=1 WtCom= 1.00D+00 WtEn= 0.00D+00
 Coeff-Com:  0.613D-04-0.973D-04-0.750D-03 0.318D-02-0.215D-01 0.629D-01
 Coeff-Com: -0.475D-01-0.279D+00 0.128D+01
 Coeff:      0.613D-04-0.973D-04-0.750D-03 0.318D-02-0.215D-01 0.629D-01
 Coeff:     -0.475D-01-0.279D+00 0.128D+01
 Gap=     0.476 Goal=   None    Shift=    0.000
 Gap=     0.424 Goal=   None    Shift=    0.000
 RMSDP=3.67D-08 MaxDP=1.72D-06 DE=-1.91D-11 OVMax= 4.03D-06

 Cycle  59  Pass 1  IDiag  1:
 E= -435.137466959981     Delta-E=       -0.000000000019 Rises=F Damp=F
 DIIS: error= 1.01D-06 at cycle  59 NSaved=  10.
 NSaved=10 IEnMin=10 EnMin= -435.137466959981     IErMin=10 ErrMin= 1.01D-06
 ErrMax= 1.01D-06  0.00D+00 EMaxC= 1.00D+00 BMatC= 1.33D-11 BMatP= 1.33D-11
 IDIUse=1 WtCom= 1.00D+00 WtEn= 0.00D+00
 Coeff-Com: -0.880D-04 0.142D-03 0.107D-02-0.458D-02 0.316D-01-0.931D-01
 Coeff-Com:  0.921D-01 0.437D+00-0.316D+01 0.369D+01
 Coeff:     -0.880D-04 0.142D-03 0.107D-02-0.458D-02 0.316D-01-0.931D-01
 Coeff:      0.921D-01 0.437D+00-0.316D+01 0.369D+01
 Gap=     0.476 Goal=   None    Shift=    0.000
 Gap=     0.424 Goal=   None    Shift=    0.000
 RMSDP=1.12D-07 MaxDP=5.25D-06 DE=-1.91D-11 OVMax= 1.23D-05

 Cycle  60  Pass 1  IDiag  1:
 E= -435.137466960040     Delta-E=       -0.000000000059 Rises=F Damp=F
 DIIS: error= 1.01D-06 at cycle  60 NSaved=  11.
 NSaved=11 IEnMin=11 EnMin= -435.137466960040     IErMin=11 ErrMin= 1.01D-06
 ErrMax= 1.01D-06  0.00D+00 EMaxC= 1.00D+00 BMatC= 1.33D-11 BMatP= 1.33D-11
 IDIUse=1 WtCom= 1.00D+00 WtEn= 0.00D+00
 Large coefficients: NSaved= 11 BigCof=   16.86 CofMax=   10.00 Det=-8.88D-17
 Inversion failed.  Reducing to 10 matrices.
 Coeff-Com:  0.136D-04 0.678D-04-0.974D-03 0.147D-01-0.522D-01 0.126D+00
 Coeff-Com:  0.378D+00-0.497D+01 0.162D+01 0.389D+01
 Coeff:      0.136D-04 0.678D-04-0.974D-03 0.147D-01-0.522D-01 0.126D+00
 Coeff:      0.378D+00-0.497D+01 0.162D+01 0.389D+01
 Gap=     0.476 Goal=   None    Shift=    0.000
 Gap=     0.424 Goal=   None    Shift=    0.000
 RMSDP=4.99D-07 MaxDP=2.35D-05 DE=-5.88D-11 OVMax= 5.49D-05

 Cycle  61  Pass 1  IDiag  1:
 E= -435.137466960313     Delta-E=       -0.000000000274 Rises=F Damp=F
 DIIS: error= 1.00D-06 at cycle  61 NSaved=  11.
 NSaved=11 IEnMin=11 EnMin= -435.137466960313     IErMin=11 ErrMin= 1.00D-06
 ErrMax= 1.00D-06  0.00D+00 EMaxC= 1.00D+00 BMatC= 1.32D-11 BMatP= 1.33D-11
 IDIUse=1 WtCom= 1.00D+00 WtEn= 0.00D+00
 Large coefficients: NSaved= 11 BigCof=  180.96 CofMax=   10.00 Det=-2.85D-17
 Inversion failed.  Reducing to 10 matrices.
 Large coefficients: NSaved= 10 BigCof=  137.59 CofMax=   10.00 Det=-3.81D-17
 Inversion failed.  Reducing to  9 matrices.
 Large coefficients: NSaved=  9 BigCof=  127.60 CofMax=   10.00 Det=-4.04D-17
 Inversion failed.  Reducing to  8 matrices.
 Large coefficients: NSaved=  8 BigCof=  125.23 CofMax=   10.00 Det=-4.17D-17
 Inversion failed.  Reducing to  7 matrices.
 Large coefficients: NSaved=  7 BigCof=  110.80 CofMax=   10.00 Det=-4.78D-17
 Inversion failed.  Reducing to  6 matrices.
 Large coefficients: NSaved=  6 BigCof=  109.77 CofMax=   10.00 Det=-4.86D-17
 Inversion failed.  Reducing to  5 matrices.
 Large coefficients: NSaved=  5 BigCof=   65.93 CofMax=   10.00 Det=-9.19D-17
 Inversion failed.  Reducing to  4 matrices.
 Large coefficients: NSaved=  4 BigCof=   65.51 CofMax=   10.00 Det=-9.33D-17
 Inversion failed.  Reducing to  3 matrices.
 Large coefficients: NSaved=  3 BigCof=   33.72 CofMax=   10.00 Det=-2.44D-16
 Inversion failed.  Reducing to  2 matrices.
 Coeff-Com: -0.168D+01 0.268D+01
 Coeff:     -0.168D+01 0.268D+01
 Gap=     0.476 Goal=   None    Shift=    0.000
 Gap=     0.424 Goal=   None    Shift=    0.000
 RMSDP=8.66D-07 MaxDP=4.07D-05 DE=-2.74D-10 OVMax= 9.52D-05

 Cycle  62  Pass 1  IDiag  1:
 E= -435.137466960778     Delta-E=       -0.000000000465 Rises=F Damp=F
 DIIS: error= 1.00D-06 at cycle  62 NSaved=   3.
 NSaved= 3 IEnMin= 3 EnMin= -435.137466960778     IErMin= 3 ErrMin= 1.00D-06
 ErrMax= 1.00D-06  0.00D+00 EMaxC= 1.00D+00 BMatC= 1.32D-11 BMatP= 1.32D-11
 IDIUse=1 WtCom= 1.00D+00 WtEn= 0.00D+00
 Large coefficients: NSaved=  3 BigCof=  110.59 CofMax=   10.00 Det=-2.15D-16
 Inversion failed.  Reducing to  2 matrices.
 Coeff-Com: -0.212D+00 0.121D+01
 Coeff:     -0.212D+00 0.121D+01
 Gap=     0.476 Goal=   None    Shift=    0.000
 Gap=     0.424 Goal=   None    Shift=    0.000
 RMSDP=2.12D-07 MaxDP=9.94D-06 DE=-4.65D-10 OVMax= 2.33D-05

 Cycle  63  Pass 1  IDiag  1:
 E= -435.137466960891     Delta-E=       -0.000000000113 Rises=F Damp=F
 DIIS: error= 1.00D-06 at cycle  63 NSaved=   3.
 NSaved= 3 IEnMin= 3 EnMin= -435.137466960891     IErMin= 3 ErrMin= 1.00D-06
 ErrMax= 1.00D-06  0.00D+00 EMaxC= 1.00D+00 BMatC= 1.32D-11 BMatP= 1.32D-11
 IDIUse=1 WtCom= 1.00D+00 WtEn= 0.00D+00
 Large coefficients: NSaved=  3 BigCof=   76.84 CofMax=   10.00 Det=-3.57D-16
 Inversion failed.  Reducing to  2 matrices.
 Coeff-Com:  0.331D+00 0.669D+00
 Coeff:      0.331D+00 0.669D+00
 Gap=     0.476 Goal=   None    Shift=    0.000
 Gap=     0.424 Goal=   None    Shift=    0.000
 RMSDP=4.22D-08 MaxDP=1.98D-06 DE=-1.13D-10 OVMax= 4.64D-06

 Cycle  64  Pass 1  IDiag  1:
 E= -435.137466960871     Delta-E=        0.000000000019 Rises=F Damp=F
 DIIS: error= 1.00D-06 at cycle  64 NSaved=   3.
 NSaved= 3 IEnMin= 2 EnMin= -435.137466960891     IErMin= 2 ErrMin= 1.00D-06
 ErrMax= 1.00D-06  0.00D+00 EMaxC= 1.00D+00 BMatC= 1.32D-11 BMatP= 1.32D-11
 IDIUse=1 WtCom= 1.00D+00 WtEn= 0.00D+00
 Large coefficients: NSaved=  3 BigCof=   29.68 CofMax=   10.00 Det=-2.29D-16
 Inversion failed.  Reducing to  2 matrices.
 Coeff-Com:  0.243D+00 0.757D+00
 Coeff:      0.243D+00 0.757D+00
 Gap=     0.476 Goal=   None    Shift=    0.000
 Gap=     0.424 Goal=   None    Shift=    0.000
 RMSDP=3.81D-08 MaxDP=1.79D-06 DE= 1.94D-11 OVMax= 4.20D-06

 Cycle  65  Pass 1  IDiag  1:
 E= -435.137466960888     Delta-E=       -0.000000000016 Rises=F Damp=F
 DIIS: error= 1.00D-06 at cycle  65 NSaved=   3.
 NSaved= 3 IEnMin= 1 EnMin= -435.137466960891     IErMin= 1 ErrMin= 1.00D-06
 ErrMax= 1.00D-06  0.00D+00 EMaxC= 1.00D+00 BMatC= 1.32D-11 BMatP= 1.32D-11
 IDIUse=1 WtCom= 1.00D+00 WtEn= 0.00D+00
 Large coefficients: NSaved=  3 BigCof=  184.91 CofMax=   10.00 Det=-6.10D-18
 Inversion failed.  Reducing to  2 matrices.
 Coeff-Com: -0.766D+01 0.866D+01
 Coeff:     -0.766D+01 0.866D+01
 Gap=     0.476 Goal=   None    Shift=    0.000
 Gap=     0.424 Goal=   None    Shift=    0.000
 RMSDP=3.20D-07 MaxDP=1.50D-05 DE=-1.64D-11 OVMax= 3.52D-05

 Cycle  66  Pass 1  IDiag  1:
 E= -435.137466961062     Delta-E=       -0.000000000175 Rises=F Damp=F
 DIIS: error= 1.00D-06 at cycle  66 NSaved=   3.
 NSaved= 3 IEnMin= 3 EnMin= -435.137466961062     IErMin= 3 ErrMin= 1.00D-06
 ErrMax= 1.00D-06  0.00D+00 EMaxC= 1.00D+00 BMatC= 1.32D-11 BMatP= 1.32D-11
 IDIUse=1 WtCom= 1.00D+00 WtEn= 0.00D+00
 Large coefficients: NSaved=  3 BigCof=  276.08 CofMax=   10.00 Det=-1.09D-17
 Inversion failed.  Reducing to  2 matrices.
 Coeff-Com: -0.233D+01 0.333D+01
 Coeff:     -0.233D+01 0.333D+01
 Gap=     0.476 Goal=   None    Shift=    0.000
 Gap=     0.424 Goal=   None    Shift=    0.000
 RMSDP=7.75D-07 MaxDP=3.64D-05 DE=-1.75D-10 OVMax= 8.52D-05

 Cycle  67  Pass 1  IDiag  1:
 E= -435.137466961480     Delta-E=       -0.000000000417 Rises=F Damp=F
 DIIS: error= 1.00D-06 at cycle  67 NSaved=   3.
 NSaved= 3 IEnMin= 3 EnMin= -435.137466961480     IErMin= 3 ErrMin= 1.00D-06
 ErrMax= 1.00D-06  0.00D+00 EMaxC= 1.00D+00 BMatC= 1.31D-11 BMatP= 1.32D-11
 IDIUse=1 WtCom= 1.00D+00 WtEn= 0.00D+00
 Large coefficients: NSaved=  3 BigCof=  234.34 CofMax=   10.00 Det=-6.17D-17
 Inversion failed.  Reducing to  2 matrices.
 Coeff-Com: -0.440D-01 0.104D+01
 Coeff:     -0.440D-01 0.104D+01
 Gap=     0.476 Goal=   None    Shift=    0.000
 Gap=     0.424 Goal=   None    Shift=    0.000
 RMSDP=6.19D-08 MaxDP=2.91D-06 DE=-4.17D-10 OVMax= 6.81D-06

 Cycle  68  Pass 1  IDiag  1:
 E= -435.137466961512     Delta-E=       -0.000000000033 Rises=F Damp=F
 DIIS: error= 1.00D-06 at cycle  68 NSaved=   3.
 NSaved= 3 IEnMin= 3 EnMin= -435.137466961512     IErMin= 3 ErrMin= 1.00D-06
 ErrMax= 1.00D-06  0.00D+00 EMaxC= 1.00D+00 BMatC= 1.31D-11 BMatP= 1.31D-11
 IDIUse=1 WtCom= 1.00D+00 WtEn= 0.00D+00
 Large coefficients: NSaved=  3 BigCof=  497.89 CofMax=   10.00 Det=-4.43D-17
 Inversion failed.  Reducing to  2 matrices.
 Coeff-Com:  0.370D+00 0.630D+00
 Coeff:      0.370D+00 0.630D+00
 Gap=     0.476 Goal=   None    Shift=    0.000
 Gap=     0.424 Goal=   None    Shift=    0.000
 RMSDP=4.90D-09 MaxDP=2.30D-07 DE=-3.25D-11 OVMax= 5.38D-07

 SCF Done:  E(UHF) =  -435.137466962     A.U. after   68 cycles
            NFock= 68  Conv=0.49D-08     -V/T= 2.0025
 <Sx>= 0.0000 <Sy>= 0.0000 <Sz>= 0.5000 <S**2>= 0.7527 S= 0.5013
 <L.S>= 0.000000000000E+00
 KE= 4.340356712146D+02 PE=-1.310465453979D+03 EE= 2.996293984569D+02
 Annihilation of the first spin contaminant:
 S**2 before annihilation     0.7527,   after     0.7500
 Leave Link  502 at Sat Mar  4 13:39:44 2017, MaxMem=   655360000 cpu:         5.3
 (Enter /mnt/software/gaussian/g09/l801.exe)
 Range of M.O.s used for correlation:     1    75
 NBasis=    75 NAE=    21 NBE=    20 NFC=     0 NFV=     0
 NROrb=     75 NOA=    21 NOB=    20 NVA=    54 NVB=    55
 Leave Link  801 at Sat Mar  4 13:39:44 2017, MaxMem=   655360000 cpu:         0.1
 (Enter /mnt/software/gaussian/g09/l1002.exe)
 Minotr:  UHF open shell wavefunction.
          Direct CPHF calculation.
          Differentiating once with respect to electric field.
                with respect to dipole field.
          Electric field/nuclear overlap derivatives assumed to be zero.
          Requested convergence is 1.0D-08 RMS, and 1.0D-07 maximum.
          Secondary convergence is 1.0D-12 RMS, and 1.0D-12 maximum.
          NewPWx=F KeepS1=T KeepF1=T KeepIn=T MapXYZ=F SortEE=F KeepMc=T.
          MDV=     655359806 using IRadAn=       2.
 Keep R1 and R2 ints in memory in canonical form, NReq=8971681.
 FoFCou: FMM=F IPFlag=           0 FMFlag=           0 FMFlg1=           0
         NFxFlg=           0 DoJE=F BraDBF=F KetDBF=F FulRan=T
         wScrn=  0.000000 ICntrl=     600 IOpCl=  0 I1Cent=           0 NGrid=           0
         NMat0=    1 NMatS0=   2850 NMatT0=    0 NMatD0=    1 NMtDS0=    0 NMtDT0=    0
 Symmetry not used in FoFCou.
          Solving linear equations simultaneously, MaxMat=       0.
          There are     3 degrees of freedom in the 1st order CPHF.  IDoFFX=0 NUNeed=     3.
      3 vectors produced by pass  0 Test12= 7.45D-14 3.33D-08 XBig12= 4.42D+00 7.38D-01.
 AX will form     3 AO Fock derivatives at one time.
      3 vectors produced by pass  1 Test12= 7.45D-14 3.33D-08 XBig12= 3.06D-01 9.33D-02.
      3 vectors produced by pass  2 Test12= 7.45D-14 3.33D-08 XBig12= 3.73D-02 6.05D-02.
      3 vectors produced by pass  3 Test12= 7.45D-14 3.33D-08 XBig12= 1.58D-03 1.69D-02.
      3 vectors produced by pass  4 Test12= 7.45D-14 3.33D-08 XBig12= 3.95D-05 3.52D-03.
      3 vectors produced by pass  5 Test12= 7.45D-14 3.33D-08 XBig12= 1.22D-06 3.02D-04.
      3 vectors produced by pass  6 Test12= 7.45D-14 3.33D-08 XBig12= 5.88D-08 7.86D-05.
      3 vectors produced by pass  7 Test12= 7.45D-14 3.33D-08 XBig12= 3.03D-09 2.01D-05.
      3 vectors produced by pass  8 Test12= 7.45D-14 3.33D-08 XBig12= 1.34D-10 7.42D-06.
      3 vectors produced by pass  9 Test12= 7.45D-14 3.33D-08 XBig12= 9.95D-12 1.52D-06.
      3 vectors produced by pass 10 Test12= 7.45D-14 3.33D-08 XBig12= 2.59D-13 9.30D-08.
 InvSVY:  IOpt=1 It=  1 EMax= 8.88D-16
 Solved reduced A of dimension    33 with     3 vectors.
 End of Minotr F.D. properties file   721 does not exist.
 End of Minotr F.D. properties file   722 does not exist.
 End of Minotr F.D. properties file   788 does not exist.
 Leave Link 1002 at Sat Mar  4 13:39:45 2017, MaxMem=   655360000 cpu:         2.5
 (Enter /mnt/software/gaussian/g09/l1101.exe)
 Using compressed storage, NAtomX=     5.
 Will process      6 centers per pass.
 Leave Link 1101 at Sat Mar  4 13:39:45 2017, MaxMem=   655360000 cpu:         0.7
 (Enter /mnt/software/gaussian/g09/l1102.exe)
 Symmetrizing basis deriv contribution to polar:
 IMax=3 JMax=2 DiffMx= 0.00D+00
 Leave Link 1102 at Sat Mar  4 13:39:45 2017, MaxMem=   655360000 cpu:         0.1
 (Enter /mnt/software/gaussian/g09/l1110.exe)
 Forming Gx(P) for the SCF density, NAtomX=     5.
 Integral derivatives from FoFJK, PRISM(SPDF).
 Do as many integral derivatives as possible in FoFJK.
 G2DrvN: MDV=     655359856.
 G2DrvN: will do     6 centers at a time, making    1 passes.
 PxScal for G2LodP:  IOpCl= 1 ISclPx=1 IMOff=     1 NMtTot=     4 NTT=    2850 ScalPx= 1.26D+00
 Calling FoFCou, ICntrl=  3107 FMM=F I1Cent=   0 AccDes= 0.00D+00.
 FoFJK:  IHMeth= 1 ICntrl=    3107 DoSepK=F KAlg= 0 I1Cent=   0 FoldK=F
 IRaf=         0 NMat=   1 IRICut=       1 DoRegI=T DoRafI=F ISym2E= 0.
 FoFCou: FMM=F IPFlag=           0 FMFlag=      100000 FMFlg1=           0
         NFxFlg=           0 DoJE=F BraDBF=F KetDBF=F FulRan=T
         wScrn=  0.000000 ICntrl=    3107 IOpCl=  1 I1Cent=           0 NGrid=           0
         NMat0=    1 NMatS0=      1 NMatT0=    0 NMatD0=    4 NMtDS0=    3 NMtDT0=    0
 Symmetry not used in FoFCou.
 End of G2Drv F.D. properties file   721 does not exist.
 End of G2Drv F.D. properties file   722 does not exist.
 End of G2Drv F.D. properties file   788 does not exist.
 Leave Link 1110 at Sat Mar  4 13:39:45 2017, MaxMem=   655360000 cpu:         1.8
 (Enter /mnt/software/gaussian/g09/l1002.exe)
 Minotr:  UHF open shell wavefunction.
          IDoAtm=11111
          Direct CPHF calculation.
          Differentiating once with respect to electric field.
                with respect to dipole field.
          Differentiating once with respect to nuclear coordinates.
          Requested convergence is 1.0D-08 RMS, and 1.0D-07 maximum.
          Secondary convergence is 1.0D-12 RMS, and 1.0D-12 maximum.
          NewPWx=T KeepS1=F KeepF1=F KeepIn=T MapXYZ=F SortEE=F KeepMc=T.
          MDV=     655359796 using IRadAn=       2.
 Keep R1 and R2 ints in memory in canonical form, NReq=8971796.
 FoFCou: FMM=F IPFlag=           0 FMFlag=           0 FMFlg1=           0
         NFxFlg=           0 DoJE=F BraDBF=F KetDBF=F FulRan=T
         wScrn=  0.000000 ICntrl=     600 IOpCl=  0 I1Cent=           0 NGrid=           0
         NMat0=    1 NMatS0=   2850 NMatT0=    0 NMatD0=    1 NMtDS0=    0 NMtDT0=    0
 Symmetry not used in FoFCou.
          Solving linear equations simultaneously, MaxMat=       0.
          There are    18 degrees of freedom in the 1st order CPHF.  IDoFFX=5 NUNeed=    18.
 Will reuse    3 saved solutions.
     12 vectors produced by pass  0 Test12= 1.24D-14 5.56D-09 XBig12= 2.05D-01 8.65D-02.
 AX will form    12 AO Fock derivatives at one time.
     12 vectors produced by pass  1 Test12= 1.24D-14 5.56D-09 XBig12= 1.59D-02 5.61D-02.
     12 vectors produced by pass  2 Test12= 1.24D-14 5.56D-09 XBig12= 2.01D-03 1.27D-02.
     12 vectors produced by pass  3 Test12= 1.24D-14 5.56D-09 XBig12= 5.30D-05 1.58D-03.
     11 vectors produced by pass  4 Test12= 1.24D-14 5.56D-09 XBig12= 7.47D-07 1.79D-04.
      9 vectors produced by pass  5 Test12= 1.24D-14 5.56D-09 XBig12= 1.22D-08 2.88D-05.
      9 vectors produced by pass  6 Test12= 1.24D-14 5.56D-09 XBig12= 1.14D-10 2.00D-06.
      7 vectors produced by pass  7 Test12= 1.24D-14 5.56D-09 XBig12= 7.92D-13 1.58D-07.
      3 vectors produced by pass  8 Test12= 1.24D-14 5.56D-09 XBig12= 4.21D-15 1.65D-08.
 InvSVY:  IOpt=1 It=  1 EMax= 2.26D-14
 Solved reduced A of dimension    87 with    12 vectors.
 FullF1:  Do perturbations    1 to     3.
 Isotropic polarizability for W=    0.000000       11.56 Bohr**3.
 FullF1:  Do perturbations    1 to     6.
 End of Minotr F.D. properties file   721 does not exist.
 End of Minotr F.D. properties file   722 does not exist.
 End of Minotr F.D. properties file   788 does not exist.
 Leave Link 1002 at Sat Mar  4 13:39:46 2017, MaxMem=   655360000 cpu:         4.8
 (Enter /mnt/software/gaussian/g09/l601.exe)
 Copying SCF densities to generalized density rwf, IOpCl= 1 IROHF=0.

 **********************************************************************

            Population analysis using the SCF density.

 **********************************************************************

 Orbital symmetries:
 Alpha Orbitals:
       Occupied  (A) (A) (A) (A) (A) (A) (A) (A) (A) (A) (A) (A)
                 (A) (A) (A) (A) (A) (A) (A) (A) (A)
       Virtual   (A) (A) (A) (A) (A) (A) (A) (A) (A) (A) (A) (A)
                 (A) (A) (A) (A) (A) (A) (A) (A) (A) (A) (A) (A)
                 (A) (A) (A) (A) (A) (A) (A) (A) (A) (A) (A) (A)
                 (A) (A) (A) (A) (A) (A) (A) (A) (A) (A) (A) (A)
                 (A) (A) (A) (A) (A) (A)
 Beta  Orbitals:
       Occupied  (A) (A) (A) (A) (A) (A) (A) (A) (A) (A) (A) (A)
                 (A) (A) (A) (A) (A) (A) (A) (A)
       Virtual   (A) (A) (A) (A) (A) (A) (A) (A) (A) (A) (A) (A)
                 (A) (A) (A) (A) (A) (A) (A) (A) (A) (A) (A) (A)
                 (A) (A) (A) (A) (A) (A) (A) (A) (A) (A) (A) (A)
                 (A) (A) (A) (A) (A) (A) (A) (A) (A) (A) (A) (A)
                 (A) (A) (A) (A) (A) (A) (A)
 The electronic state is 2-A.
 Alpha  occ. eigenvalues --  -26.76174 -26.74671 -26.73361 -26.43739 -11.96334
 Alpha  occ. eigenvalues --   -2.17232  -2.06877  -2.03383  -1.69121  -1.32797
 Alpha  occ. eigenvalues --   -1.23780  -1.23277  -1.18504  -1.07157  -1.06776
 Alpha  occ. eigenvalues --   -1.04511  -1.03036  -1.01687  -0.85944  -0.75156
 Alpha  occ. eigenvalues --   -0.75153
 Alpha virt. eigenvalues --   -0.27569   0.07940   0.14467   0.16217   0.32932
 Alpha virt. eigenvalues --    0.36893   0.40611   0.42697   0.99747   1.01284
 Alpha virt. eigenvalues --    1.02790   1.03168   1.07191   1.08671   1.27385
 Alpha virt. eigenvalues --    1.28010   1.29294   1.29787   1.30747   1.31692
 Alpha virt. eigenvalues --    1.32872   1.39707   1.39715   1.41622   1.62876
 Alpha virt. eigenvalues --    1.65001   1.73136   1.75279   1.77959   1.82805
 Alpha virt. eigenvalues --    1.84271   1.87804   1.94923   1.97174   2.00419
 Alpha virt. eigenvalues --    2.01550   2.02145   2.02149   2.07562   2.07562
 Alpha virt. eigenvalues --    2.09401   2.46035   2.54161   2.59605   2.86725
 Alpha virt. eigenvalues --    2.92244   3.13580   3.15697   3.19479   3.66224
 Alpha virt. eigenvalues --    4.20158   4.47554   4.56131   4.68193
  Beta  occ. eigenvalues --  -26.76174 -26.74671 -26.73361 -26.38964 -11.96334
  Beta  occ. eigenvalues --   -2.17232  -2.06877  -2.03383  -1.49929  -1.32797
  Beta  occ. eigenvalues --   -1.23780  -1.23277  -1.18504  -1.07157  -1.06776
  Beta  occ. eigenvalues --   -1.04511  -1.03036  -1.01687  -0.69991  -0.69988
  Beta virt. eigenvalues --   -0.27569   0.05739   0.07940   0.14467   0.16217
  Beta virt. eigenvalues --    0.32932   0.36893   0.40611   0.42697   0.99747
  Beta virt. eigenvalues --    1.01284   1.02790   1.06398   1.07191   1.08671
  Beta virt. eigenvalues --    1.27385   1.28010   1.29294   1.29787   1.30747
  Beta virt. eigenvalues --    1.31692   1.41622   1.42233   1.42240   1.55222
  Beta virt. eigenvalues --    1.62876   1.65001   1.73136   1.75279   1.77959
  Beta virt. eigenvalues --    1.82805   1.84271   1.87804   1.94923   1.97174
  Beta virt. eigenvalues --    2.01550   2.08235   2.08235   2.09401   2.11026
  Beta virt. eigenvalues --    2.11030   2.12130   2.46035   2.54161   2.59605
  Beta virt. eigenvalues --    2.86725   2.92244   3.13580   3.15697   3.19479
  Beta virt. eigenvalues --    3.70524   4.20158   4.47554   4.56131   4.68193
          Condensed to atoms (all electrons):
               1          2          3          4          5
     1  C    3.516074   0.412124   0.388043   0.000000   0.424437
     2  F    0.412124   8.746868  -0.038961   0.000000  -0.041148
     3  F    0.388043  -0.038961   8.810107   0.000000  -0.031644
     4  F    0.000000   0.000000   0.000000   9.000000   0.000000
     5  F    0.424437  -0.041148  -0.031644   0.000000   8.701249
          Atomic-Atomic Spin Densities.
               1          2          3          4          5
     1  C    0.000000   0.000000   0.000000   0.000000   0.000000
     2  F    0.000000   0.000000   0.000000   0.000000   0.000000
     3  F    0.000000   0.000000   0.000000   0.000000   0.000000
     4  F    0.000000   0.000000   0.000000   1.000000   0.000000
     5  F    0.000000   0.000000   0.000000   0.000000   0.000000
 Mulliken charges and spin densities:
               1          2
     1  C    1.259323   0.000000
     2  F   -0.078884   0.000000
     3  F   -0.127545   0.000000
     4  F    0.000000   1.000000
     5  F   -0.052894   0.000000
 Sum of Mulliken charges =   1.00000   1.00000
 Mulliken charges and spin densities with hydrogens summed into heavy atoms:
               1          2
     1  C    1.259323   0.000000
     2  F   -0.078884   0.000000
     3  F   -0.127545   0.000000
     4  F    0.000000   1.000000
     5  F   -0.052894   0.000000
 APT charges:
               1
     1  C    2.029730
     2  F   -0.351398
     3  F   -0.328368
     4  F    0.000001
     5  F   -0.349964
 Sum of APT charges =   1.00000
 APT charges with hydrogens summed into heavy atoms:
               1
     1  C    2.029730
     2  F   -0.351398
     3  F   -0.328368
     4  F    0.000001
     5  F   -0.349964
 Electronic spatial extent (au):  <R**2>=           5503.1552
 Charge=              1.0000 electrons
 Dipole moment (field-independent basis, Debye):
    X=            -15.0720    Y=              0.2504    Z=              1.3133  Tot=             15.1312
 Quadrupole moment (field-independent basis, Debye-Ang):
   XX=             26.1667   YY=            -20.9790   ZZ=            -19.5231
   XY=             -0.8366   XZ=             -4.0510   YZ=              0.3194
 Traceless Quadrupole moment (field-independent basis, Debye-Ang):
   XX=             30.9451   YY=            -16.2006   ZZ=            -14.7446
   XY=             -0.8366   XZ=             -4.0510   YZ=              0.3194
 Octapole moment (field-independent basis, Debye-Ang**2):
  XXX=           -152.6416  YYY=              0.5893  ZZZ=              0.2665  XYY=             -2.5844
  XXY=              2.1325  XXZ=             10.9939  XZZ=              3.4296  YZZ=              0.0833
  YYZ=             -0.4739  XYZ=              2.9600
 Hexadecapole moment (field-independent basis, Debye-Ang**3):
 XXXX=          -4234.0541 YYYY=            -64.6998 ZZZZ=            -11.5773 XXXY=             -9.9691
 XXXZ=            -44.2840 YYYX=             -1.9949 YYYZ=             -0.0967 ZZZX=             -0.5209
 ZZZY=              0.1339 XXYY=           -779.1527 XXZZ=           -681.9287 YYZZ=            -13.1900
 XXYZ=             35.3149 YYXZ=              1.7680 ZZXY=             -0.1744
 N-N= 1.416629173461D+02 E-N=-1.310465454159D+03  KE= 4.340356712146D+02
  Exact polarizability:  12.921  -0.185  12.601  -0.463   0.130   9.160
 Approx polarizability:  12.005  -0.194  11.755  -0.375   0.148   9.173
                          Isotropic Fermi Contact Couplings
        Atom                 a.u.       MegaHertz       Gauss      10(-4) cm-1
     1  C(13)              0.00000       0.00000       0.00000       0.00000
     2  F(19)              0.00000       0.00000       0.00000       0.00000
     3  F(19)              0.00000       0.00000       0.00000       0.00000
     4  F(19)              0.06931     291.61704     104.05621      97.27297
     5  F(19)              0.00000       0.00000       0.00000       0.00000
 --------------------------------------------------------
       Center         ----  Spin Dipole Couplings  ----
                      3XX-RR        3YY-RR        3ZZ-RR
 --------------------------------------------------------
     1   Atom        0.000096     -0.000048     -0.000048
     2   Atom        0.000081     -0.000040     -0.000041
     3   Atom        0.000124     -0.000062     -0.000062
     4   Atom       -2.900100     -1.946486      4.846586
     5   Atom        0.000086     -0.000043     -0.000043
 --------------------------------------------------------
                        XY            XZ            YZ
 --------------------------------------------------------
     1   Atom        0.000000     -0.000002      0.000000
     2   Atom        0.000007      0.000000      0.000000
     3   Atom        0.000003      0.000003      0.000000
     4   Atom       -0.105676     -0.299607      2.736479
     5   Atom       -0.000010      0.000000      0.000000
 --------------------------------------------------------


 ---------------------------------------------------------------------------------
              Anisotropic Spin Dipole Couplings in Principal Axis System
 ---------------------------------------------------------------------------------

[...]
     3              2                                  2                 6              52                                4          
     9              9                                  1                 0              03                                5          
 
     X              X                                  X                 X              XX                                X          
     X              X                                  X                 X                                                           
     X              X                                                    X                                                           
     X              X                                                    X                                                           
     X              X                                                                                                                
     X              X                                                                                                                
     X              X                                                                                                                
     X              X                                                                                                                
     X              X                                                                                                                
     X              X                                                                                                                
     X              X                                                                                                                
     X              X                                                                                                                
     X              X                                                                                                                
     X              X                                                                                                                
     X              X                                                                                                                
     X              X                                                                                                                
     X              X                                                                                                                
     X              X                                                                                                                
     X                                                                                                                               
     X                                                                                                                               
 
 
                                                          Distorted Ethanol
                                                            Raman Spectrum
 
     1              1                                  1                                                                             
     8              6                                  1                 8              66                                1          
     3              2                                  2                 6              52                                4          
     9              9                                  1                 0              03                                5          
 
     X              X                                  X                 X              XX                                X          
     X              X                                  X                 X              XX                                           
                    X                                  X                                XX                                           
                    X                                  X                                                                             
                                                       X                                                                             
                                                       X                                                                             
                                                       X                                                                             
                                                       X                                                                             
                                                       X                                                                             
                                                       X                                                                             
                                                       X                                                                             
                                                       X                                                                             
                                                       X                                                                             
                                                       X                                                                             
                                                       X                                                                             
                                                       X                                                                             
                                                       X                                                                             
                                                       X                                                                             
                                                       X                                                                             
                                                       X                                                                             
 
 Forces in standard orientation:
 -------------------------------------------------------------------
 Center     Atomic                   Forces (Hartrees/Bohr)
 Number     Number              X              Y              Z
 -------------------------------------------------------------------
      1        6          -0.037283187    0.042683737    0.144281685
      2        9           0.001206567    0.008419971   -0.046229548
      3        9           0.039279034   -0.018758684   -0.057236637
      4        9           0.000001827   -0.000000064   -0.000000198
      5        9          -0.003204240   -0.032344961   -0.040815302
 -------------------------------------------------------------------
 ***** Axes restored to original set *****
 Rotating derivatives, DoTrsp=F IDiff=-2 LEDeriv=    772 LFDPrp=       0 LDFDPr=       0.
 -------------------------------------------------------------------
 Center     Atomic                   Forces (Hartrees/Bohr)
 Number     Number              X              Y              Z
 -------------------------------------------------------------------
      1        6          -0.061150119    0.057620479    0.130267745
      2        9           0.030532433   -0.028167241   -0.021997726
      3        9           0.034275061   -0.003572624   -0.063112755
      4        9           0.000000902    0.000001312   -0.000000920
      5        9          -0.003658278   -0.025881926   -0.045156344
 -------------------------------------------------------------------
 Cartesian Forces:  Max     0.130267745 RMS     0.047701699
 Z-matrix is all fixed cartesians, so copy forces.
 Force constants in Cartesian coordinates: 
                1             2             3             4             5 
      1  0.884004D+00
      2  0.150330D+00  0.677766D+00
      3  0.297953D+00 -0.240045D+00  0.790328D+00
      4 -0.409054D+00 -0.204997D+00 -0.126798D+00  0.515760D+00
      5 -0.228592D+00 -0.245835D+00 -0.800548D-01  0.288631D+00  0.244867D+00
      6 -0.142835D+00 -0.833693D-01 -0.157433D+00  0.190506D+00  0.700960D-01
      7 -0.175789D+00 -0.903342D-01  0.824534D-01 -0.398042D-01 -0.648924D-01
      8 -0.733148D-01 -0.217685D+00  0.112469D+00 -0.678498D-01 -0.294983D-01
      9  0.827633D-01  0.137628D+00 -0.250337D+00  0.137076D-01  0.912539D-02
     10  0.000000D+00  0.000000D+00  0.000000D+00  0.000000D+00  0.000000D+00
     11  0.000000D+00  0.000000D+00  0.000000D+00  0.000000D+00  0.000000D+00
     12  0.000000D+00  0.000000D+00  0.000000D+00  0.000000D+00  0.000000D+00
     13 -0.299162D+00  0.145001D+00 -0.253609D+00 -0.669026D-01  0.485285D-02
     14  0.151576D+00 -0.214246D+00  0.207632D+00 -0.157836D-01  0.304665D-01
     15 -0.237881D+00  0.185787D+00 -0.382557D+00 -0.774155D-01  0.833217D-03
                6             7             8             9            10 
      6  0.161537D+00
      7  0.317255D-01  0.189024D+00
      8  0.274886D-01  0.140894D+00  0.261467D+00
      9  0.194887D-01 -0.100387D+00 -0.201843D+00  0.281886D+00
     10  0.000000D+00  0.000000D+00  0.000000D+00  0.000000D+00  0.000000D+00
     11  0.000000D+00  0.000000D+00  0.000000D+00  0.000000D+00  0.000000D+00
     12  0.000000D+00  0.000000D+00  0.000000D+00  0.000000D+00  0.000000D+00
     13 -0.793956D-01  0.265691D-01  0.270928D-03  0.391649D-02  0.000000D+00
     14 -0.142154D-01  0.143329D-01 -0.142834D-01  0.550896D-01  0.000000D+00
     15 -0.235927D-01 -0.137914D-01  0.618853D-01 -0.510375D-01  0.000000D+00
               11            12            13            14            15 
     11  0.000000D+00
     12  0.000000D+00  0.000000D+00
     13  0.000000D+00  0.000000D+00  0.339495D+00
     14  0.000000D+00  0.000000D+00 -0.150125D+00  0.198063D+00
     15  0.000000D+00  0.000000D+00  0.329088D+00 -0.248506D+00  0.457188D+00
 Final forces over variables, Energy=-4.35137467D+02:
 -6.11501186D-02 3.05324328D-02 3.42750613D-02 9.02077530D-07
 -3.65827762D-03 5.76204789D-02-2.81672406D-02-3.57262444D-03
  1.31172876D-06-2.58819255D-02 1.30267745D-01-2.19977260D-02
 -6.31127551D-02-9.19914031D-07-4.51563444D-02
 Leave Link  716 at Sat Mar  4 13:39:47 2017, MaxMem=   655360000 cpu:         0.2
 (Enter /mnt/software/gaussian/g09/l103.exe)

 GradGradGradGradGradGradGradGradGradGradGradGradGradGradGradGradGradGrad
 Berny optimization.
 Search for a local minimum.
 Step number   1 out of a maximum of    2
 All quantities printed in internal units (Hartrees-Bohrs-Radians)
 Second derivative matrix not updated -- analytic derivatives used.
 The second derivative matrix:
                          X1        Y1        Z1        X2        Y2
           X1           0.88400
           Y1           0.15033   0.67777
           Z1           0.29795  -0.24005   0.79033
           X2          -0.40905  -0.20500  -0.12680   0.51576
           Y2          -0.22859  -0.24584  -0.08005   0.28863   0.24487
           Z2          -0.14284  -0.08337  -0.15743   0.19051   0.07010
           X3          -0.17579  -0.09033   0.08245  -0.03980  -0.06489
           Y3          -0.07331  -0.21769   0.11247  -0.06785  -0.02950
           Z3           0.08276   0.13763  -0.25034   0.01371   0.00913
           X4           0.00000   0.00000   0.00000   0.00000   0.00000
           Y4           0.00000   0.00000   0.00000   0.00000   0.00000
           Z4           0.00000   0.00000   0.00000   0.00000   0.00000
           X5          -0.29916   0.14500  -0.25361  -0.06690   0.00485
           Y5           0.15158  -0.21425   0.20763  -0.01578   0.03047
           Z5          -0.23788   0.18579  -0.38256  -0.07742   0.00083
                          Z2        X3        Y3        Z3        X4
           Z2           0.16154
           X3           0.03173   0.18902
           Y3           0.02749   0.14089   0.26147
           Z3           0.01949  -0.10039  -0.20184   0.28189
           X4           0.00000   0.00000   0.00000   0.00000   0.00000
           Y4           0.00000   0.00000   0.00000   0.00000   0.00000
           Z4           0.00000   0.00000   0.00000   0.00000   0.00000
           X5          -0.07940   0.02657   0.00027   0.00392   0.00000
           Y5          -0.01422   0.01433  -0.01428   0.05509   0.00000
           Z5          -0.02359  -0.01379   0.06189  -0.05104   0.00000
                          Y4        Z4        X5        Y5        Z5
           Y4           0.00000
           Z4           0.00000   0.00000
           X5           0.00000   0.00000   0.33950
           Y5           0.00000   0.00000  -0.15012   0.19806
           Z5           0.00000   0.00000   0.32909  -0.24851   0.45719
 ITU=  0
     Eigenvalues ---   -0.00023   0.00000   0.01515   0.26684   0.29108
     Eigenvalues ---    0.38489   0.84113   1.41302   1.77183
 Eigenvalue     1 is  -2.25D-04 should be greater than     0.000000 Eigenvector:
                          X3        Y5        Y2        X5        Z2
   1                    0.48283  -0.44149   0.41972  -0.36006  -0.35693
                          Z3        X4        Z5        Z4        X2
   1                    0.31644  -0.10559   0.10067  -0.09221  -0.06275
 Eigenvalue     2 is  -3.40D-07 should be greater than     0.000000 Eigenvector:
                          Y4        X4        Z4        Y5        Y1
   1                    0.69406   0.40974  -0.36736  -0.18187  -0.18186
                          Y3        Y2        X5        X2        X1
   1                   -0.18186  -0.18184  -0.10737  -0.10736  -0.10736
 Quadratic step=7.111D+00 exceeds max=3.000D-01 adjusted using Lamda=-1.678D-01.
 Angle between NR and scaled steps=  85.84 degrees.
 Angle between quadratic step and forces=  17.35 degrees.
 Linear search not attempted -- first point.
 TrRot=  0.002873 -0.005730 -0.005349 -1.910017 -0.000329  1.909727
 Variable       Old X    -DE/DX   Delta X   Delta X   Delta X     New X
                                 (Linear)    (Quad)   (Total)
    X1        1.78137  -0.06115   0.00000  -0.11594  -0.11072   1.67065
    Y1        8.95842   0.05762   0.00000   0.15159   0.14455   9.10297
    Z1       -2.84296   0.13027   0.00000   0.18428   0.17593  -2.66703
    X2        3.55639   0.03053   0.00000   0.07244   0.07803   3.63442
    Y2       10.21578  -0.02817   0.00000  -0.04275  -0.05018  10.16560
    Z2       -2.04627  -0.02200   0.00000  -0.02699  -0.03589  -2.08216
    X3        0.71877   0.03428   0.00000   0.02654   0.03148   0.75025
    Y3        7.59508  -0.00357   0.00000  -0.01821  -0.02454   7.57054
    Z3       -1.16593  -0.06311   0.00000  -0.06149  -0.06927  -1.23520
    X4      -11.10094   0.00000   0.00000   0.00036   0.00061 -11.10033
    Y4      -12.35077   0.00000   0.00000  -0.00141  -0.00119 -12.35197
    Z4        8.80835   0.00000   0.00000  -0.00126  -0.00157   8.80678
    X5        0.46507  -0.00366   0.00000  -0.00467   0.00059   0.46566
    Y5        9.99573  -0.02588   0.00000  -0.06139  -0.06864   9.92709
    Z5       -4.38751  -0.04516   0.00000  -0.06072  -0.06919  -4.45671
         Item               Value     Threshold  Converged?
 Maximum Force            0.130268     0.000450     NO 
 RMS     Force            0.047702     0.000300     NO 
 Maximum Displacement     0.175927     0.001800     NO 
 RMS     Displacement     0.077414     0.001200     NO 
 Predicted change in Energy=-3.411900D-02
 GradGradGradGradGradGradGradGradGradGradGradGradGradGradGradGradGradGrad

 Leave Link  103 at Sat Mar  4 13:39:47 2017, MaxMem=   655360000 cpu:         0.1
 (Enter /mnt/software/gaussian/g09/l9999.exe)

 Test job not archived.
 1\1\GINC-TP-LINUX1\Freq\UHF\6-31G(d)\C1F4(1+,2)\THOMAS\04-Mar-2017\0\\
 #P UHF/6-31g* IOP(7/33=1) IOP(7/8=11) Freq\\Distorted Ethanol\\1,2\C,0
 .942658,4.740591,-1.504429\F,1.881958,5.405959,-1.082837\F,0.380359,4.
 019145,-0.616981\F,-5.874367,-6.535747,4.661179\F,0.246104,5.28951,-2.
 321771\\Version=ES64L-G09RevD.01\State=2-A\HF=-435.137467\S2=0.752673\
 S2-1=0.\S2A=0.750003\RMSD=4.903e-09\RMSF=4.770e-02\ZeroPoint=0.0156466
 \Thermal=0.0195022\Dipole=2.9401415,4.3298524,-2.8367177\DipoleDeriv=2
 .1681195,0.3467059,0.3410468,0.3535943,1.8661984,-0.4455457,0.3377263,
 -0.4264843,2.0548711,-0.5276294,-0.1969593,-0.1280158,-0.3413771,-0.29
 78796,-0.0219564,-0.2138695,-0.030626,-0.2286845,-0.2800338,-0.2032187
 ,0.0955798,-0.1185847,-0.3293018,0.1655159,0.0989102,0.2977882,-0.3757
 699,0.0000265,-0.0000844,0.0000461,-0.0000881,-0.0000585,0.0000759,0.0
 000416,0.0000792,0.0000343,-0.3604828,0.0535565,-0.3086569,0.1064555,-
 0.2389584,0.3019103,-0.2228085,0.1592429,-0.450451\Polar=11.749849,1.2
 350106,11.0375301,0.7695536,-1.5117259,11.8946716\PolarDeriv=1.5519959
 ,-0.7770383,0.3881722,-0.860421,-0.4418805,0.7330901,-0.9278541,0.4036
 769,-2.2974692,-0.3872578,-0.740605,-0.6898951,-0.7431855,-0.468313,-0
 .5987378,0.7211073,-0.4933901,-2.4594777,3.2875534,1.3948481,1.0968771
 ,0.9250553,0.0508767,0.8657357,1.0437979,1.5086721,2.4751044,0.0213145
 ,0.4219397,0.756366,0.7061,0.0404846,0.4596528,1.3586108,0.7950593,1.5
 421679,-2.1761353,-1.2700053,-0.7067041,1.2768779,0.2279271,-0.7241042
 ,-0.7610611,-1.077549,-2.2240867,0.2977318,1.6092245,-1.048445,0.98687
 98,0.2601471,1.0142778,-0.8851304,-1.4816098,3.6527345,-0.0000438,-0.0
 000518,0.0000244,-0.000181,-0.000238,0.0000929,-0.0003573,0.0003995,0.
 0007312,0.000467,0.0002573,-0.0002445,-0.0004074,0.0000968,0.000493,0.
 0006248,0.0003624,-0.0001219,-2.6633702,0.6522473,-0.7783696,-1.341331
 2,0.1633147,-0.8748144,0.6454746,-0.8351996,2.0457203,0.0677445,-1.290
 8165,0.9822186,-0.9493869,0.1675845,-0.8756858,-1.1952125,1.1795782,-2
 .7353029\HyperPolar=2.7341977,-5.015396,0.390553,-5.1461614,-3.1757134
 ,-5.7040844,-1.6285508,5.7618606,-0.8775378,-7.5298959\PG=C01 [X(C1F4)
 ]\NImag=2\\0.88400430,0.15033031,0.67776598,0.29795315,-0.24004508,0.7
 9032802,-0.40905357,-0.20499747,-0.12679757,0.51576042,-0.22859152,-0.
 24583521,-0.08005476,0.28863111,0.24486704,-0.14283547,-0.08336932,-0.
 15743308,0.19050552,0.07009604,0.16153702,-0.17578900,-0.09033417,0.08
 245341,-0.03980423,-0.06489238,0.03172553,0.18902412,-0.07331481,-0.21
 768515,0.11246858,-0.06784983,-0.02949832,0.02748861,0.14089379,0.2614
 6689,0.08276333,0.13762756,-0.25033747,0.01370761,0.00912539,0.0194887
 2,-0.10038750,-0.20184267,0.28188627,0.00000002,0.00000034,-0.00000019
 ,-0.00000001,-0.00000006,0.,-0.00000003,-0.00000008,0.00000007,0.,0.00
 000043,0.00000016,-0.00000041,-0.00000016,-0.00000004,0.00000003,-0.00
 000012,0.00000002,0.00000015,-0.00000013,-0.00000008,-0.00000005,-0.00
 000044,-0.00000008,-0.00000002,0.00000011,0.00000004,0.,0.00000014,0.,
 0.00000006,0.00000016,0.00000005,-0.29916175,0.14500099,-0.25360880,-0
 .06690262,0.00485285,-0.07939558,0.02656915,0.00027093,0.00391649,0.00
 000003,-0.00000001,0.,0.33949519,0.15157560,-0.21424578,0.20763167,-0.
 01578365,0.03046653,-0.01421536,0.01433287,-0.01428344,0.05508956,-0.0
 0000006,-0.00000006,0.00000003,-0.15012476,0.19806275,-0.23788096,0.18
 578728,-0.38255738,-0.07741554,0.00083322,-0.02359270,-0.01379144,0.06
 188534,-0.05103752,0.00000006,0.00000006,0.,0.32908789,-0.24850590,0.4
 5718760\\0.06115012,-0.05762048,-0.13026775,-0.03053243,0.02816724,0.0
 2199773,-0.03427506,0.00357262,0.06311276,-0.00000090,-0.00000131,0.00
 000092,0.00365828,0.02588193,0.04515634\\\@


 THE HURRIEDER I GO, THE BEHINDER I GET.
 Job cpu time:       0 days  0 hours  0 minutes 24.5 seconds.
 File lengths (MBytes):  RWF=     12 Int=      0 D2E=      0 Chk=      2 Scr=      1
 Normal termination of Gaussian 09 at Sat Mar  4 13:39:47 2017.
