 Entering Gaussian System, Link 0=g09
 Input=/home/thomas/cf4/DD-vMCG/dd_data/gwp1_V1_dd_data.com
 Output=/home/thomas/cf4/DD-vMCG/dd_data/gwp1_V1_dd_data.log
 Initial command:
 /mnt/software/gaussian/g09/l1.exe "/scratch/Gau-31206.inp" -scrdir="/scratch/"
 Entering Link 1 = /mnt/software/gaussian/g09/l1.exe PID=     31209.
  
 Copyright (c) 1988,1990,1992,1993,1995,1998,2003,2009,2013,
            Gaussian, Inc.  All Rights Reserved.
  
 This is part of the Gaussian(R) 09 program.  It is based on
 the Gaussian(R) 03 system (copyright 2003, Gaussian, Inc.),
 the Gaussian(R) 98 system (copyright 1998, Gaussian, Inc.),
 the Gaussian(R) 94 system (copyright 1995, Gaussian, Inc.),
 the Gaussian 92(TM) system (copyright 1992, Gaussian, Inc.),
 the Gaussian 90(TM) system (copyright 1990, Gaussian, Inc.),
 the Gaussian 88(TM) system (copyright 1988, Gaussian, Inc.),
 the Gaussian 86(TM) system (copyright 1986, Carnegie Mellon
 University), and the Gaussian 82(TM) system (copyright 1983,
 Carnegie Mellon University). Gaussian is a federally registered
 trademark of Gaussian, Inc.
  
 This software contains proprietary and confidential information,
 including trade secrets, belonging to Gaussian, Inc.
  
 This software is provided under written license and may be
 used, copied, transmitted, or stored only in accord with that
 written license.
  
 The following legend is applicable only to US Government
 contracts under FAR:
  
                    RESTRICTED RIGHTS LEGEND
  
 Use, reproduction and disclosure by the US Government is
 subject to restrictions as set forth in subparagraphs (a)
 and (c) of the Commercial Computer Software - Restricted
 Rights clause in FAR 52.227-19.
  
 Gaussian, Inc.
 340 Quinnipiac St., Bldg. 40, Wallingford CT 06492
  
  
 ---------------------------------------------------------------
 Warning -- This program may not be used in any manner that
 competes with the business of Gaussian, Inc. or will provide
 assistance to any competitor of Gaussian, Inc.  The licensee
 of this program is prohibited from giving any competitor of
 Gaussian, Inc. access to this program.  By using this program,
 the user acknowledges that Gaussian, Inc. is engaged in the
 business of creating and licensing software in the field of
 computational chemistry and represents and warrants to the
 licensee that it is not a competitor of Gaussian, Inc. and that
 it will not use this program in any manner prohibited above.
 ---------------------------------------------------------------
  

 Cite this work as:
 Gaussian 09, Revision D.01,
 M. J. Frisch, G. W. Trucks, H. B. Schlegel, G. E. Scuseria, 
 M. A. Robb, J. R. Cheeseman, G. Scalmani, V. Barone, B. Mennucci, 
 G. A. Petersson, H. Nakatsuji, M. Caricato, X. Li, H. P. Hratchian, 
 A. F. Izmaylov, J. Bloino, G. Zheng, J. L. Sonnenberg, M. Hada, 
 M. Ehara, K. Toyota, R. Fukuda, J. Hasegawa, M. Ishida, T. Nakajima, 
 Y. Honda, O. Kitao, H. Nakai, T. Vreven, J. A. Montgomery, Jr., 
 J. E. Peralta, F. Ogliaro, M. Bearpark, J. J. Heyd, E. Brothers, 
 K. N. Kudin, V. N. Staroverov, T. Keith, R. Kobayashi, J. Normand, 
 K. Raghavachari, A. Rendell, J. C. Burant, S. S. Iyengar, J. Tomasi, 
 M. Cossi, N. Rega, J. M. Millam, M. Klene, J. E. Knox, J. B. Cross, 
 V. Bakken, C. Adamo, J. Jaramillo, R. Gomperts, R. E. Stratmann, 
 O. Yazyev, A. J. Austin, R. Cammi, C. Pomelli, J. W. Ochterski, 
 R. L. Martin, K. Morokuma, V. G. Zakrzewski, G. A. Voth, 
 P. Salvador, J. J. Dannenberg, S. Dapprich, A. D. Daniels, 
 O. Farkas, J. B. Foresman, J. V. Ortiz, J. Cioslowski, 
 and D. J. Fox, Gaussian, Inc., Wallingford CT, 2013.
 
 ******************************************
 Gaussian 09:  ES64L-G09RevD.01 24-Apr-2013
                 4-Mar-2017 
 ******************************************
 %mem=5000MB
 %Nprocshared=6
 Will use up to    6 processors via shared memory.
 %chk=gwp1_V1_dd_data.chk
 ------------------------------------------
 #P UHF/6-31g* IOP(7/33=1) IOP(7/8=11) Freq
 ------------------------------------------
 1/10=4,30=1,38=1/1,3;
 2/12=2,17=6,18=5,40=1/2;
 3/5=1,6=6,7=1,11=2,16=1,25=1,30=1,71=2,116=2,140=1/1,2,3;
 4//1;
 5/5=2,38=5,98=1/2;
 8/6=4,10=90,11=11/1;
 10/13=10,15=4/2;
 11/6=3,8=1,9=11,15=111,16=1/1,2,10;
 10/6=1/2;
 6/7=2,8=2,9=2,10=2,18=1,28=1/1;
 7/8=11,10=1,25=1,33=1/1,2,3,16;
 1/10=4,30=1/3;
 99//99;
 Leave Link    1 at Sat Mar  4 13:40:23 2017, MaxMem=   655360000 cpu:         0.2
 (Enter /mnt/software/gaussian/g09/l101.exe)
 -----------------
 Distorted Ethanol
 -----------------
 Symbolic Z-matrix:
 Charge =  1 Multiplicity = 2
 6                     0.19033   4.9271   -1.34708 
 9                     1.48173   4.85997  -1.27338 
 9                    -0.35185   5.63098  -0.41861 
 9                    -4.77051  -8.00576   4.37549 
 9                    -0.05982   5.31536  -2.56351 
 
 NAtoms=      5 NQM=        5 NQMF=       0 NMMI=      0 NMMIF=      0
                NMic=       0 NMicF=      0.
                    Isotopes and Nuclear Properties:
 (Nuclear quadrupole moments (NQMom) in fm**2, nuclear magnetic moments (NMagM)
  in nuclear magnetons)

  Atom         1           2           3           4           5
 IAtWgt=          12          19          19          19          19
 AtmWgt=  12.0000000  18.9984033  18.9984033  18.9984033  18.9984033
 NucSpn=           0           1           1           1           1
 AtZEff=   0.0000000   0.0000000   0.0000000   0.0000000   0.0000000
 NQMom=    0.0000000   0.0000000   0.0000000   0.0000000   0.0000000
 NMagM=    0.0000000   2.6288670   2.6288670   2.6288670   2.6288670
 AtZNuc=   6.0000000   9.0000000   9.0000000   9.0000000   9.0000000
 Leave Link  101 at Sat Mar  4 13:40:23 2017, MaxMem=   655360000 cpu:         0.3
 (Enter /mnt/software/gaussian/g09/l103.exe)

 GradGradGradGradGradGradGradGradGradGradGradGradGradGradGradGradGradGrad
 Berny optimization.
 Initialization pass.
 Trust Radius=3.00D-01 FncErr=1.00D-07 GrdErr=1.00D-07
 Number of steps in this run=      2 maximum allowed number of steps=      2.
 GradGradGradGradGradGradGradGradGradGradGradGradGradGradGradGradGradGrad

 Leave Link  103 at Sat Mar  4 13:40:23 2017, MaxMem=   655360000 cpu:         0.1
 (Enter /mnt/software/gaussian/g09/l202.exe)
                          Input orientation:                          
 ---------------------------------------------------------------------
 Center     Atomic      Atomic             Coordinates (Angstroms)
 Number     Number       Type             X           Y           Z
 ---------------------------------------------------------------------
      1          6           0        0.190327    4.927098   -1.347077
      2          9           0        1.481734    4.859965   -1.273379
      3          9           0       -0.351850    5.630976   -0.418612
      4          9           0       -4.770514   -8.005763    4.375489
      5          9           0       -0.059820    5.315358   -2.563514
 ---------------------------------------------------------------------
                    Distance matrix (angstroms):
                    1          2          3          4          5
     1  C    0.000000
     2  F    1.295249   0.000000
     3  F    1.285087   2.164975   0.000000
     4  F   14.987215  15.379443  15.115179   0.000000
     5  F    1.301168   2.061121   2.187579  15.741431   0.000000
 Stoichiometry    CF4(1+,2)
 Framework group  C1[X(CF4)]
 Deg. of freedom     9
 Full point group                 C1      NOp   1
 Largest Abelian subgroup         C1      NOp   1
 Largest concise Abelian subgroup C1      NOp   1
                         Standard orientation:                         
 ---------------------------------------------------------------------
 Center     Atomic      Atomic             Coordinates (Angstroms)
 Number     Number       Type             X           Y           Z
 ---------------------------------------------------------------------
      1          6           0       -2.968991   -0.009979    0.058399
      2          9           0       -3.313168   -0.852001   -0.863670
      3          9           0       -3.041459    1.221255   -0.302514
      4          9           0       12.018185   -0.029555    0.031019
      5          9           0       -3.684231   -0.333047    1.096232
 ---------------------------------------------------------------------
 Rotational constants (GHZ):      6.0851152      0.1431356      0.1429150
 Leave Link  202 at Sat Mar  4 13:40:23 2017, MaxMem=   655360000 cpu:         0.0
 (Enter /mnt/software/gaussian/g09/l301.exe)
 Standard basis: 6-31G(d) (6D, 7F)
 Ernie: Thresh=  0.10000D-02 Tol=  0.10000D-05 Strict=F.
 There are    75 symmetry adapted cartesian basis functions of A   symmetry.
 There are    75 symmetry adapted basis functions of A   symmetry.
    75 basis functions,   140 primitive gaussians,    75 cartesian basis functions
    21 alpha electrons       20 beta electrons
       nuclear repulsion energy       136.7007267563 Hartrees.
 IExCor=    0 DFT=F Ex=HF Corr=None ExCW=0 ScaHFX=  1.000000
 ScaDFX=  1.000000  1.000000  1.000000  1.000000 ScalE2=  1.000000  1.000000
 IRadAn=      0 IRanWt=     -1 IRanGd=            0 ICorTp=0 IEmpDi=  4
 NAtoms=    5 NActive=    5 NUniq=    5 SFac= 1.00D+00 NAtFMM=   60 NAOKFM=F Big=F
 Integral buffers will be    131072 words long.
 Raffenetti 2 integral format.
 Two-electron integral symmetry is turned on.
 Leave Link  301 at Sat Mar  4 13:40:24 2017, MaxMem=   655360000 cpu:         0.2
 (Enter /mnt/software/gaussian/g09/l302.exe)
 NPDir=0 NMtPBC=     1 NCelOv=     1 NCel=       1 NClECP=     1 NCelD=      1
         NCelK=      1 NCelE2=     1 NClLst=     1 CellRange=     0.0.
 One-electron integrals computed using PRISM.
 NBasis=    75 RedAO= T EigKep=  3.20D-03  NBF=    75
 NBsUse=    75 1.00D-06 EigRej= -1.00D+00 NBFU=    75
 Leave Link  302 at Sat Mar  4 13:40:24 2017, MaxMem=   655360000 cpu:         0.6
 (Enter /mnt/software/gaussian/g09/l303.exe)
 DipDrv:  MaxL=1.
 Leave Link  303 at Sat Mar  4 13:40:24 2017, MaxMem=   655360000 cpu:         0.1
 (Enter /mnt/software/gaussian/g09/l401.exe)
 ExpMin= 1.69D-01 ExpMax= 7.00D+03 ExpMxC= 1.05D+03 IAcc=1 IRadAn=         1 AccDes= 0.00D+00
 Harris functional with IExCor=  205 and IRadAn=       1 diagonalized for initial guess.
 HarFok:  IExCor=  205 AccDes= 0.00D+00 IRadAn=         1 IDoV= 1 UseB2=F ITyADJ=14
 ICtDFT=  3500011 ScaDFX=  1.000000  1.000000  1.000000  1.000000
 FoFCou: FMM=F IPFlag=           0 FMFlag=      100000 FMFlg1=           0
         NFxFlg=           0 DoJE=T BraDBF=F KetDBF=T FulRan=T
         wScrn=  0.000000 ICntrl=     500 IOpCl=  0 I1Cent=   200000004 NGrid=           0
         NMat0=    1 NMatS0=      1 NMatT0=    0 NMatD0=    1 NMtDS0=    0 NMtDT0=    0
 Petite list used in FoFCou.
 Harris En= -435.003781924384    
 JPrj=0 DoOrth=F DoCkMO=F.
 Initial guess <Sx>= 0.0000 <Sy>= 0.0000 <Sz>= 0.5000 <S**2>= 0.7500 S= 0.5000
 Leave Link  401 at Sat Mar  4 13:40:24 2017, MaxMem=   655360000 cpu:         0.8
 (Enter /mnt/software/gaussian/g09/l502.exe)
 UHF open shell SCF:
 Using DIIS extrapolation, IDIIS=  1040.
 Integral symmetry usage will be decided dynamically.
 Keep R1 and R2 ints in memory in canonical form, NReq=8999463.
 IVT=       36430 IEndB=       36430 NGot=   655360000 MDV=   647198221
 LenX=   647198221 LenY=   647192155
 Requested convergence on RMS density matrix=1.00D-08 within 128 cycles.
 Requested convergence on MAX density matrix=1.00D-06.
 Requested convergence on             energy=1.00D-06.
 No special actions if energy rises.
 FoFCou: FMM=F IPFlag=           0 FMFlag=           0 FMFlg1=           0
         NFxFlg=           0 DoJE=F BraDBF=F KetDBF=F FulRan=T
         wScrn=  0.000000 ICntrl=     600 IOpCl=  0 I1Cent=           0 NGrid=           0
         NMat0=    1 NMatS0=   2850 NMatT0=    0 NMatD0=    1 NMtDS0=    0 NMtDT0=    0
 Symmetry not used in FoFCou.

 Cycle   1  Pass 1  IDiag  1:
 E= -434.988443470755    
 DIIS: error= 7.71D-02 at cycle   1 NSaved=   1.
 NSaved= 1 IEnMin= 1 EnMin= -434.988443470755     IErMin= 1 ErrMin= 7.71D-02
 ErrMax= 7.71D-02  0.00D+00 EMaxC= 1.00D-01 BMatC= 1.08D+00 BMatP= 1.08D+00
 IDIUse=3 WtCom= 2.29D-01 WtEn= 7.71D-01
 Coeff-Com:  0.100D+01
 Coeff-En:   0.100D+01
 Coeff:      0.100D+01
 Gap=     0.420 Goal=   None    Shift=    0.000
 Gap=     0.788 Goal=   None    Shift=    0.000
 GapD=    0.420 DampG=2.000 DampE=0.500 DampFc=1.0000 IDamp=-1.
 RMSDP=4.14D-03 MaxDP=6.89D-02              OVMax= 7.25D-02

 Cycle   2  Pass 1  IDiag  1:
 E= -435.065635943576     Delta-E=       -0.077192472821 Rises=F Damp=F
 DIIS: error= 1.44D-02 at cycle   2 NSaved=   2.
 NSaved= 2 IEnMin= 2 EnMin= -435.065635943576     IErMin= 2 ErrMin= 1.44D-02
 ErrMax= 1.44D-02  0.00D+00 EMaxC= 1.00D-01 BMatC= 1.04D-01 BMatP= 1.08D+00
 IDIUse=3 WtCom= 8.56D-01 WtEn= 1.44D-01
 Coeff-Com:  0.141D+00 0.859D+00
 Coeff-En:   0.000D+00 0.100D+01
 Coeff:      0.121D+00 0.879D+00
 Gap=     0.410 Goal=   None    Shift=    0.000
 Gap=     0.363 Goal=   None    Shift=    0.000
 RMSDP=1.78D-03 MaxDP=3.47D-02 DE=-7.72D-02 OVMax= 6.22D-02

 Cycle   3  Pass 1  IDiag  1:
 E= -435.080836038570     Delta-E=       -0.015200094994 Rises=F Damp=F
 DIIS: error= 7.98D-03 at cycle   3 NSaved=   3.
 NSaved= 3 IEnMin= 3 EnMin= -435.080836038570     IErMin= 3 ErrMin= 7.98D-03
 ErrMax= 7.98D-03  0.00D+00 EMaxC= 1.00D-01 BMatC= 2.93D-02 BMatP= 1.04D-01
 IDIUse=3 WtCom= 9.20D-01 WtEn= 7.98D-02
 Coeff-Com: -0.222D-01 0.326D+00 0.697D+00
 Coeff-En:   0.000D+00 0.000D+00 0.100D+01
 Coeff:     -0.204D-01 0.300D+00 0.721D+00
 Gap=     0.399 Goal=   None    Shift=    0.000
 Gap=     0.351 Goal=   None    Shift=    0.000
 RMSDP=5.81D-04 MaxDP=1.28D-02 DE=-1.52D-02 OVMax= 1.40D-02

 Cycle   4  Pass 1  IDiag  1:
 E= -435.085606120531     Delta-E=       -0.004770081961 Rises=F Damp=F
 DIIS: error= 1.28D-03 at cycle   4 NSaved=   4.
 NSaved= 4 IEnMin= 4 EnMin= -435.085606120531     IErMin= 4 ErrMin= 1.28D-03
 ErrMax= 1.28D-03  0.00D+00 EMaxC= 1.00D-01 BMatC= 5.57D-04 BMatP= 2.93D-02
 IDIUse=3 WtCom= 9.87D-01 WtEn= 1.28D-02
 Coeff-Com: -0.608D-02-0.602D-01-0.362D-01 0.110D+01
 Coeff-En:   0.000D+00 0.000D+00 0.000D+00 0.100D+01
 Coeff:     -0.601D-02-0.595D-01-0.357D-01 0.110D+01
 Gap=     0.400 Goal=   None    Shift=    0.000
 Gap=     0.350 Goal=   None    Shift=    0.000
 RMSDP=1.79D-04 MaxDP=2.51D-03 DE=-4.77D-03 OVMax= 6.11D-03

 Cycle   5  Pass 1  IDiag  1:
 E= -435.085859369966     Delta-E=       -0.000253249435 Rises=F Damp=F
 DIIS: error= 4.79D-04 at cycle   5 NSaved=   5.
 NSaved= 5 IEnMin= 5 EnMin= -435.085859369966     IErMin= 5 ErrMin= 4.79D-04
 ErrMax= 4.79D-04  0.00D+00 EMaxC= 1.00D-01 BMatC= 6.28D-05 BMatP= 5.57D-04
 IDIUse=3 WtCom= 9.95D-01 WtEn= 4.79D-03
 Coeff-Com:  0.428D-02-0.291D-01-0.784D-01-0.156D+00 0.126D+01
 Coeff-En:   0.000D+00 0.000D+00 0.000D+00 0.000D+00 0.100D+01
 Coeff:      0.426D-02-0.289D-01-0.780D-01-0.155D+00 0.126D+01
 Gap=     0.402 Goal=   None    Shift=    0.000
 Gap=     0.351 Goal=   None    Shift=    0.000
 RMSDP=8.28D-05 MaxDP=1.35D-03 DE=-2.53D-04 OVMax= 3.11D-03

 Cycle   6  Pass 1  IDiag  1:
 E= -435.085898489701     Delta-E=       -0.000039119735 Rises=F Damp=F
 DIIS: error= 1.14D-04 at cycle   6 NSaved=   6.
 NSaved= 6 IEnMin= 6 EnMin= -435.085898489701     IErMin= 6 ErrMin= 1.14D-04
 ErrMax= 1.14D-04  0.00D+00 EMaxC= 1.00D-01 BMatC= 2.70D-06 BMatP= 6.28D-05
 IDIUse=3 WtCom= 9.99D-01 WtEn= 1.14D-03
 Coeff-Com: -0.768D-03 0.969D-02 0.211D-01-0.111D-01-0.329D+00 0.131D+01
 Coeff-En:   0.000D+00 0.000D+00 0.000D+00 0.000D+00 0.000D+00 0.100D+01
 Coeff:     -0.767D-03 0.968D-02 0.210D-01-0.111D-01-0.328D+00 0.131D+01
 Gap=     0.403 Goal=   None    Shift=    0.000
 Gap=     0.351 Goal=   None    Shift=    0.000
 RMSDP=1.78D-05 MaxDP=2.76D-04 DE=-3.91D-05 OVMax= 7.68D-04

 Cycle   7  Pass 1  IDiag  1:
 E= -435.085900163029     Delta-E=       -0.000001673328 Rises=F Damp=F
 DIIS: error= 3.39D-05 at cycle   7 NSaved=   7.
 NSaved= 7 IEnMin= 7 EnMin= -435.085900163029     IErMin= 7 ErrMin= 3.39D-05
 ErrMax= 3.39D-05  0.00D+00 EMaxC= 1.00D-01 BMatC= 2.99D-07 BMatP= 2.70D-06
 IDIUse=1 WtCom= 1.00D+00 WtEn= 0.00D+00
 Coeff-Com: -0.384D-03 0.362D-02 0.801D-02 0.688D-02-0.135D+00 0.272D+00
 Coeff-Com:  0.845D+00
 Coeff:     -0.384D-03 0.362D-02 0.801D-02 0.688D-02-0.135D+00 0.272D+00
 Coeff:      0.845D+00
 Gap=     0.402 Goal=   None    Shift=    0.000
 Gap=     0.351 Goal=   None    Shift=    0.000
 RMSDP=3.32D-06 MaxDP=6.61D-05 DE=-1.67D-06 OVMax= 1.10D-04

 Cycle   8  Pass 1  IDiag  1:
 E= -435.085900256720     Delta-E=       -0.000000093691 Rises=F Damp=F
 DIIS: error= 9.24D-06 at cycle   8 NSaved=   8.
 NSaved= 8 IEnMin= 8 EnMin= -435.085900256720     IErMin= 8 ErrMin= 9.24D-06
 ErrMax= 9.24D-06  0.00D+00 EMaxC= 1.00D-01 BMatC= 4.32D-08 BMatP= 2.99D-07
 IDIUse=1 WtCom= 1.00D+00 WtEn= 0.00D+00
 Coeff-Com:  0.103D-03-0.131D-02-0.330D-02 0.231D-02 0.479D-01-0.198D+00
 Coeff-Com:  0.170D-01 0.114D+01
 Coeff:      0.103D-03-0.131D-02-0.330D-02 0.231D-02 0.479D-01-0.198D+00
 Coeff:      0.170D-01 0.114D+01
 Gap=     0.402 Goal=   None    Shift=    0.000
 Gap=     0.351 Goal=   None    Shift=    0.000
 RMSDP=1.82D-06 MaxDP=2.67D-05 DE=-9.37D-08 OVMax= 6.44D-05

 Cycle   9  Pass 1  IDiag  1:
 E= -435.085900275622     Delta-E=       -0.000000018902 Rises=F Damp=F
 DIIS: error= 4.05D-06 at cycle   9 NSaved=   9.
 NSaved= 9 IEnMin= 9 EnMin= -435.085900275622     IErMin= 9 ErrMin= 4.05D-06
 ErrMax= 4.05D-06  0.00D+00 EMaxC= 1.00D-01 BMatC= 3.52D-09 BMatP= 4.32D-08
 IDIUse=1 WtCom= 1.00D+00 WtEn= 0.00D+00
 Coeff-Com:  0.534D-04-0.577D-03-0.140D-02-0.313D-03 0.218D-01-0.622D-01
 Coeff-Com: -0.808D-01 0.209D+00 0.914D+00
 Coeff:      0.534D-04-0.577D-03-0.140D-02-0.313D-03 0.218D-01-0.622D-01
 Coeff:     -0.808D-01 0.209D+00 0.914D+00
 Gap=     0.402 Goal=   None    Shift=    0.000
 Gap=     0.351 Goal=   None    Shift=    0.000
 RMSDP=4.61D-07 MaxDP=7.49D-06 DE=-1.89D-08 OVMax= 1.62D-05

 Cycle  10  Pass 1  IDiag  1:
 E= -435.085900276996     Delta-E=       -0.000000001374 Rises=F Damp=F
 DIIS: error= 8.40D-07 at cycle  10 NSaved=  10.
 NSaved=10 IEnMin=10 EnMin= -435.085900276996     IErMin=10 ErrMin= 8.40D-07
 ErrMax= 8.40D-07  0.00D+00 EMaxC= 1.00D-01 BMatC= 2.00D-10 BMatP= 3.52D-09
 IDIUse=1 WtCom= 1.00D+00 WtEn= 0.00D+00
 Coeff-Com: -0.128D-04 0.165D-03 0.389D-03-0.213D-03-0.584D-02 0.216D-01
 Coeff-Com:  0.755D-02-0.112D+00-0.107D+00 0.120D+01
 Coeff:     -0.128D-04 0.165D-03 0.389D-03-0.213D-03-0.584D-02 0.216D-01
 Coeff:      0.755D-02-0.112D+00-0.107D+00 0.120D+01
 Gap=     0.402 Goal=   None    Shift=    0.000
 Gap=     0.351 Goal=   None    Shift=    0.000
 RMSDP=1.54D-07 MaxDP=2.28D-06 DE=-1.37D-09 OVMax= 4.67D-06

 Cycle  11  Pass 1  IDiag  1:
 E= -435.085900277132     Delta-E=       -0.000000000137 Rises=F Damp=F
 DIIS: error= 8.40D-07 at cycle  11 NSaved=  11.
 NSaved=11 IEnMin=11 EnMin= -435.085900277132     IErMin=11 ErrMin= 8.40D-07
 ErrMax= 8.40D-07  0.00D+00 EMaxC= 1.00D-01 BMatC= 2.77D-11 BMatP= 2.00D-10
 IDIUse=1 WtCom= 1.00D+00 WtEn= 0.00D+00
 Coeff-Com:  0.135D-05-0.213D-04-0.557D-04 0.808D-04 0.746D-03-0.346D-02
 Coeff-Com:  0.135D-02 0.212D-01-0.605D-02-0.357D+00 0.134D+01
 Coeff:      0.135D-05-0.213D-04-0.557D-04 0.808D-04 0.746D-03-0.346D-02
 Coeff:      0.135D-02 0.212D-01-0.605D-02-0.357D+00 0.134D+01
 Gap=     0.402 Goal=   None    Shift=    0.000
 Gap=     0.351 Goal=   None    Shift=    0.000
 RMSDP=6.21D-08 MaxDP=1.59D-06 DE=-1.37D-10 OVMax= 4.37D-06

 Cycle  12  Pass 1  IDiag  1:
 E= -435.085900277166     Delta-E=       -0.000000000034 Rises=F Damp=F
 DIIS: error= 8.40D-07 at cycle  12 NSaved=  12.
 NSaved=12 IEnMin=12 EnMin= -435.085900277166     IErMin=12 ErrMin= 8.40D-07
 ErrMax= 8.40D-07  0.00D+00 EMaxC= 1.00D-01 BMatC= 1.52D-11 BMatP= 2.77D-11
 IDIUse=1 WtCom= 1.00D+00 WtEn= 0.00D+00
 Coeff-Com:  0.545D-06-0.646D-05-0.114D-04-0.220D-05 0.193D-03-0.598D-03
 Coeff-Com: -0.561D-03 0.228D-02 0.107D-01 0.312D-02-0.394D+00 0.138D+01
 Coeff:      0.545D-06-0.646D-05-0.114D-04-0.220D-05 0.193D-03-0.598D-03
 Coeff:     -0.561D-03 0.228D-02 0.107D-01 0.312D-02-0.394D+00 0.138D+01
 Gap=     0.402 Goal=   None    Shift=    0.000
 Gap=     0.351 Goal=   None    Shift=    0.000
 RMSDP=4.64D-08 MaxDP=1.71D-06 DE=-3.40D-11 OVMax= 4.66D-06

 Cycle  13  Pass 1  IDiag  1:
 E= -435.085900277191     Delta-E=       -0.000000000024 Rises=F Damp=F
 DIIS: error= 8.40D-07 at cycle  13 NSaved=  13.
 NSaved=13 IEnMin=13 EnMin= -435.085900277191     IErMin=13 ErrMin= 8.40D-07
 ErrMax= 8.40D-07  0.00D+00 EMaxC= 1.00D-01 BMatC= 1.37D-11 BMatP= 1.52D-11
 IDIUse=1 WtCom= 1.00D+00 WtEn= 0.00D+00
 Coeff-Com: -0.208D-06 0.276D-05 0.649D-05-0.589D-05-0.894D-04 0.368D-03
 Coeff-Com:  0.752D-04-0.240D-02-0.163D-02 0.292D-01-0.181D-01-0.394D+00
 Coeff-Com:  0.139D+01
 Coeff:     -0.208D-06 0.276D-05 0.649D-05-0.589D-05-0.894D-04 0.368D-03
 Coeff:      0.752D-04-0.240D-02-0.163D-02 0.292D-01-0.181D-01-0.394D+00
 Coeff:      0.139D+01
 Gap=     0.402 Goal=   None    Shift=    0.000
 Gap=     0.351 Goal=   None    Shift=    0.000
 RMSDP=4.41D-08 MaxDP=1.76D-06 DE=-2.42D-11 OVMax= 4.80D-06

 Cycle  14  Pass 1  IDiag  1:
 E= -435.085900277212     Delta-E=       -0.000000000022 Rises=F Damp=F
 DIIS: error= 8.40D-07 at cycle  14 NSaved=  14.
 NSaved=14 IEnMin=14 EnMin= -435.085900277212     IErMin=14 ErrMin= 8.40D-07
 ErrMax= 8.40D-07  0.00D+00 EMaxC= 1.00D-01 BMatC= 1.36D-11 BMatP= 1.37D-11
 IDIUse=1 WtCom= 1.00D+00 WtEn= 0.00D+00
 Coeff-Com: -0.639D-07 0.838D-06 0.157D-05-0.106D-05-0.232D-04 0.856D-04
 Coeff-Com:  0.552D-04-0.522D-03-0.921D-03 0.362D-02 0.287D-01-0.173D+00
 Coeff-Com:  0.207D+00 0.935D+00
 Coeff:     -0.639D-07 0.838D-06 0.157D-05-0.106D-05-0.232D-04 0.856D-04
 Coeff:      0.552D-04-0.522D-03-0.921D-03 0.362D-02 0.287D-01-0.173D+00
 Coeff:      0.207D+00 0.935D+00
 Gap=     0.402 Goal=   None    Shift=    0.000
 Gap=     0.351 Goal=   None    Shift=    0.000
 RMSDP=3.02D-08 MaxDP=1.22D-06 DE=-2.19D-11 OVMax= 3.32D-06

 Cycle  15  Pass 1  IDiag  1:
 E= -435.085900277230     Delta-E=       -0.000000000018 Rises=F Damp=F
 DIIS: error= 8.40D-07 at cycle  15 NSaved=  15.
 NSaved=15 IEnMin=15 EnMin= -435.085900277230     IErMin=15 ErrMin= 8.40D-07
 ErrMax= 8.40D-07  0.00D+00 EMaxC= 1.00D-01 BMatC= 1.36D-11 BMatP= 1.36D-11
 IDIUse=1 WtCom= 1.00D+00 WtEn= 0.00D+00
 Coeff-Com:  0.310D-07-0.396D-06-0.104D-05 0.823D-06 0.139D-04-0.592D-04
 Coeff-Com: -0.210D-05 0.390D-03 0.217D-03-0.545D-02 0.817D-02 0.572D-01
 Coeff-Com: -0.252D+00 0.128D+00 0.106D+01
 Coeff:      0.310D-07-0.396D-06-0.104D-05 0.823D-06 0.139D-04-0.592D-04
 Coeff:     -0.210D-05 0.390D-03 0.217D-03-0.545D-02 0.817D-02 0.572D-01
 Coeff:     -0.252D+00 0.128D+00 0.106D+01
 Gap=     0.402 Goal=   None    Shift=    0.000
 Gap=     0.351 Goal=   None    Shift=    0.000
 RMSDP=3.60D-08 MaxDP=1.45D-06 DE=-1.77D-11 OVMax= 3.96D-06

 Cycle  16  Pass 1  IDiag  1:
 E= -435.085900277250     Delta-E=       -0.000000000020 Rises=F Damp=F
 DIIS: error= 8.40D-07 at cycle  16 NSaved=  16.
 NSaved=16 IEnMin=16 EnMin= -435.085900277250     IErMin=16 ErrMin= 8.40D-07
 ErrMax= 8.40D-07  0.00D+00 EMaxC= 1.00D-01 BMatC= 1.36D-11 BMatP= 1.36D-11
 IDIUse=1 WtCom= 1.00D+00 WtEn= 0.00D+00
 Large coefficients: NSaved= 16 BigCof=    0.00 CofMax=   10.00 Det=-5.02D-16
 Inversion failed.  Reducing to 15 matrices.
 Coeff-Com:  0.535D-07 0.385D-06-0.681D-06-0.401D-05 0.287D-04-0.268D-04
 Coeff-Com: -0.238D-03 0.127D-03 0.500D-02-0.193D-01-0.183D-01 0.266D+00
 Coeff-Com: -0.478D+00-0.145D+01 0.270D+01
 Coeff:      0.535D-07 0.385D-06-0.681D-06-0.401D-05 0.287D-04-0.268D-04
 Coeff:     -0.238D-03 0.127D-03 0.500D-02-0.193D-01-0.183D-01 0.266D+00
 Coeff:     -0.478D+00-0.145D+01 0.270D+01
 Gap=     0.402 Goal=   None    Shift=    0.000
 Gap=     0.351 Goal=   None    Shift=    0.000
 RMSDP=8.84D-08 MaxDP=3.57D-06 DE=-2.01D-11 OVMax= 9.73D-06

 Cycle  17  Pass 1  IDiag  1:
 E= -435.085900277302     Delta-E=       -0.000000000052 Rises=F Damp=F
 DIIS: error= 8.40D-07 at cycle  17 NSaved=  16.
 NSaved=16 IEnMin=16 EnMin= -435.085900277302     IErMin=16 ErrMin= 8.40D-07
 ErrMax= 8.40D-07  0.00D+00 EMaxC= 1.00D-01 BMatC= 1.35D-11 BMatP= 1.36D-11
 IDIUse=1 WtCom= 1.00D+00 WtEn= 0.00D+00
 Large coefficients: NSaved= 16 BigCof=    0.00 CofMax=   10.00 Det=-4.73D-17
 Inversion failed.  Reducing to 15 matrices.
 Large coefficients: NSaved= 15 BigCof=   27.11 CofMax=   10.00 Det=-4.73D-17
 Inversion failed.  Reducing to 14 matrices.
 Large coefficients: NSaved= 14 BigCof=   21.68 CofMax=   10.00 Det=-6.66D-17
 Inversion failed.  Reducing to 13 matrices.
 Large coefficients: NSaved= 13 BigCof=   21.66 CofMax=   10.00 Det=-6.66D-17
 Inversion failed.  Reducing to 12 matrices.
 Large coefficients: NSaved= 12 BigCof=   21.31 CofMax=   10.00 Det=-6.72D-17
 Inversion failed.  Reducing to 11 matrices.
 Large coefficients: NSaved= 11 BigCof=   20.96 CofMax=   10.00 Det=-6.78D-17
 Inversion failed.  Reducing to 10 matrices.
 Large coefficients: NSaved= 10 BigCof=   20.93 CofMax=   10.00 Det=-6.79D-17
 Inversion failed.  Reducing to  9 matrices.
 Large coefficients: NSaved=  9 BigCof=   18.74 CofMax=   10.00 Det=-7.32D-17
 Inversion failed.  Reducing to  8 matrices.
 Large coefficients: NSaved=  8 BigCof=   18.24 CofMax=   10.00 Det=-7.45D-17
 Inversion failed.  Reducing to  7 matrices.
 Large coefficients: NSaved=  7 BigCof=   18.32 CofMax=   10.00 Det=-7.51D-17
 Inversion failed.  Reducing to  6 matrices.
 Large coefficients: NSaved=  6 BigCof=   16.93 CofMax=   10.00 Det=-7.95D-17
 Inversion failed.  Reducing to  5 matrices.
 Large coefficients: NSaved=  5 BigCof=   17.17 CofMax=   10.00 Det=-8.08D-17
 Inversion failed.  Reducing to  4 matrices.
 Large coefficients: NSaved=  4 BigCof=   13.63 CofMax=   10.00 Det=-1.16D-16
 Inversion failed.  Reducing to  3 matrices.
 Coeff-Com: -0.220D+00-0.653D+01 0.775D+01
 Coeff:     -0.220D+00-0.653D+01 0.775D+01
 Gap=     0.402 Goal=   None    Shift=    0.000
 Gap=     0.351 Goal=   None    Shift=    0.000
 RMSDP=6.33D-07 MaxDP=2.56D-05 DE=-5.16D-11 OVMax= 6.96D-05

 Cycle  18  Pass 1  IDiag  1:
 E= -435.085900277644     Delta-E=       -0.000000000343 Rises=F Damp=F
 DIIS: error= 8.39D-07 at cycle  18 NSaved=   4.
 NSaved= 4 IEnMin= 4 EnMin= -435.085900277644     IErMin= 4 ErrMin= 8.39D-07
 ErrMax= 8.39D-07  0.00D+00 EMaxC= 1.00D-01 BMatC= 1.35D-11 BMatP= 1.35D-11
 IDIUse=1 WtCom= 1.00D+00 WtEn= 0.00D+00
 Large coefficients: NSaved=  4 BigCof=   32.42 CofMax=   10.00 Det=-9.75D-17
 Inversion failed.  Reducing to  3 matrices.
 Coeff-Com:  0.296D+00-0.476D+01 0.546D+01
 Coeff:      0.296D+00-0.476D+01 0.546D+01
 Gap=     0.402 Goal=   None    Shift=    0.000
 Gap=     0.351 Goal=   None    Shift=    0.000
 RMSDP=2.83D-06 MaxDP=1.14D-04 DE=-3.43D-10 OVMax= 3.11D-04

 Cycle  19  Pass 1  IDiag  1:
 E= -435.085900279182     Delta-E=       -0.000000001538 Rises=F Damp=F
 DIIS: error= 8.34D-07 at cycle  19 NSaved=   4.
 NSaved= 4 IEnMin= 4 EnMin= -435.085900279182     IErMin= 4 ErrMin= 8.34D-07
 ErrMax= 8.34D-07  0.00D+00 EMaxC= 1.00D-01 BMatC= 1.34D-11 BMatP= 1.35D-11
 IDIUse=1 WtCom= 1.00D+00 WtEn= 0.00D+00
 Large coefficients: NSaved=  4 BigCof=   97.99 CofMax=   10.00 Det=-5.48D-17
 Inversion failed.  Reducing to  3 matrices.
 Coeff-Com: -0.562D+01 0.402D+01 0.259D+01
 Coeff:     -0.562D+01 0.402D+01 0.259D+01
 Gap=     0.402 Goal=   None    Shift=    0.000
 Gap=     0.351 Goal=   None    Shift=    0.000
 RMSDP=8.09D-06 MaxDP=3.27D-04 DE=-1.54D-09 OVMax= 8.90D-04

 Cycle  20  Pass 1  IDiag  1:
 E= -435.085900283535     Delta-E=       -0.000000004353 Rises=F Damp=F
 DIIS: error= 8.21D-07 at cycle  20 NSaved=   4.
 NSaved= 4 IEnMin= 4 EnMin= -435.085900283535     IErMin= 4 ErrMin= 8.21D-07
 ErrMax= 8.21D-07  0.00D+00 EMaxC= 1.00D-01 BMatC= 1.32D-11 BMatP= 1.34D-11
 IDIUse=1 WtCom= 1.00D+00 WtEn= 0.00D+00
 Coeff-Com: -0.132D+01-0.722D+00 0.185D+01 0.119D+01
 Coeff:     -0.132D+01-0.722D+00 0.185D+01 0.119D+01
 Gap=     0.402 Goal=   None    Shift=    0.000
 Gap=     0.351 Goal=   None    Shift=    0.000
 RMSDP=8.13D-06 MaxDP=3.29D-04 DE=-4.35D-09 OVMax= 8.95D-04

 Cycle  21  Pass 1  IDiag  1:
 E= -435.085900287837     Delta-E=       -0.000000004302 Rises=F Damp=F
 DIIS: error= 8.08D-07 at cycle  21 NSaved=   5.
 NSaved= 5 IEnMin= 5 EnMin= -435.085900287837     IErMin= 5 ErrMin= 8.08D-07
 ErrMax= 8.08D-07  0.00D+00 EMaxC= 1.00D-01 BMatC= 1.33D-11 BMatP= 1.32D-11
 IDIUse=1 WtCom= 1.00D+00 WtEn= 0.00D+00
 Large coefficients: NSaved=  5 BigCof=   14.63 CofMax=   10.00 Det=-2.04D-16
 Inversion failed.  Reducing to  4 matrices.
 Coeff-Com: -0.254D+01 0.189D+01 0.210D+01-0.451D+00
 Coeff:     -0.254D+01 0.189D+01 0.210D+01-0.451D+00
 Gap=     0.402 Goal=   None    Shift=    0.000
 Gap=     0.351 Goal=   None    Shift=    0.000
 RMSDP=6.82D-07 MaxDP=2.75D-05 DE=-4.30D-09 OVMax= 7.49D-05

 Cycle  22  Pass 1  IDiag  1:
 E= -435.085900288196     Delta-E=       -0.000000000359 Rises=F Damp=F
 DIIS: error= 8.07D-07 at cycle  22 NSaved=   5.
 NSaved= 5 IEnMin= 5 EnMin= -435.085900288196     IErMin= 5 ErrMin= 8.07D-07
 ErrMax= 8.07D-07  0.00D+00 EMaxC= 1.00D-01 BMatC= 1.39D-11 BMatP= 1.32D-11
 IDIUse=1 WtCom= 1.00D+00 WtEn= 0.00D+00
 Large coefficients: NSaved=  5 BigCof=   29.02 CofMax=   10.00 Det=-2.98D-15
 Inversion failed.  Reducing to  4 matrices.
 Large coefficients: NSaved=  4 BigCof=   24.07 CofMax=   10.00 Det=-3.23D-15
 Inversion failed.  Reducing to  3 matrices.
 Large coefficients: NSaved=  3 BigCof=   19.56 CofMax=   10.00 Det=-3.82D-15
 Inversion failed.  Reducing to  2 matrices.
 Coeff-Com:  0.366D+01-0.266D+01
 Coeff:      0.366D+01-0.266D+01
 Gap=     0.402 Goal=   None    Shift=    0.000
 Gap=     0.351 Goal=   None    Shift=    0.000
 RMSDP=2.47D-06 MaxDP=9.98D-05 DE=-3.59D-10 OVMax= 2.71D-04

 Cycle  23  Pass 1  IDiag  1:
 E= -435.085900286900     Delta-E=        0.000000001296 Rises=F Damp=F
 DIIS: error= 8.11D-07 at cycle  23 NSaved=   3.
 NSaved= 3 IEnMin= 2 EnMin= -435.085900288196     IErMin= 2 ErrMin= 8.07D-07
 ErrMax= 8.11D-07  0.00D+00 EMaxC= 1.00D-01 BMatC= 1.27D-11 BMatP= 1.33D-11
 IDIUse=1 WtCom= 1.00D+00 WtEn= 0.00D+00
 Coeff-Com:  0.416D+00-0.314D+00 0.898D+00
 Coeff:      0.416D+00-0.314D+00 0.898D+00
 Gap=     0.402 Goal=   None    Shift=    0.000
 Gap=     0.351 Goal=   None    Shift=    0.000
 RMSDP=4.86D-09 MaxDP=1.92D-07 DE= 1.30D-09 OVMax= 5.24D-07

 Cycle  24  Pass 1  IDiag  1:
 E= -435.085900286896     Delta-E=        0.000000000003 Rises=F Damp=F
 DIIS: error= 8.11D-07 at cycle  24 NSaved=   4.
 NSaved= 4 IEnMin= 2 EnMin= -435.085900288196     IErMin= 2 ErrMin= 8.07D-07
 ErrMax= 8.11D-07  0.00D+00 EMaxC= 1.00D-01 BMatC= 1.27D-11 BMatP= 1.27D-11
 IDIUse=1 WtCom= 1.00D+00 WtEn= 0.00D+00
 Coeff-Com: -0.192D+01 0.147D+01-0.274D+00 0.172D+01
 Coeff:     -0.192D+01 0.147D+01-0.274D+00 0.172D+01
 Gap=     0.402 Goal=   None    Shift=    0.000
 Gap=     0.351 Goal=   None    Shift=    0.000
 RMSDP=2.29D-07 MaxDP=9.26D-06 DE= 3.30D-12 OVMax= 2.52D-05

 Cycle  25  Pass 1  IDiag  1:
 E= -435.085900287018     Delta-E=       -0.000000000122 Rises=F Damp=F
 DIIS: error= 8.11D-07 at cycle  25 NSaved=   5.
 NSaved= 5 IEnMin= 2 EnMin= -435.085900288196     IErMin= 2 ErrMin= 8.07D-07
 ErrMax= 8.11D-07  0.00D+00 EMaxC= 1.00D-01 BMatC= 1.26D-11 BMatP= 1.27D-11
 IDIUse=1 WtCom= 1.00D+00 WtEn= 0.00D+00
 Coeff-Com:  0.307D-01 0.108D+00-0.680D+00-0.800D+00 0.234D+01
 Coeff:      0.307D-01 0.108D+00-0.680D+00-0.800D+00 0.234D+01
 Gap=     0.402 Goal=   None    Shift=    0.000
 Gap=     0.351 Goal=   None    Shift=    0.000
 RMSDP=6.53D-07 MaxDP=2.64D-05 DE=-1.22D-10 OVMax= 7.18D-05

 Cycle  26  Pass 1  IDiag  1:
 E= -435.085900287361     Delta-E=       -0.000000000343 Rises=F Damp=F
 DIIS: error= 8.10D-07 at cycle  26 NSaved=   6.
 NSaved= 6 IEnMin= 2 EnMin= -435.085900288196     IErMin= 2 ErrMin= 8.07D-07
 ErrMax= 8.10D-07  0.00D+00 EMaxC= 1.00D-01 BMatC= 1.26D-11 BMatP= 1.26D-11
 IDIUse=1 WtCom= 1.00D+00 WtEn= 0.00D+00
 Large coefficients: NSaved=  6 BigCof=   24.04 CofMax=   10.00 Det=-3.64D-16
 Inversion failed.  Reducing to  5 matrices.
 Coeff-Com:  0.108D+01-0.100D+01 0.163D+01-0.594D+01 0.524D+01
 Coeff:      0.108D+01-0.100D+01 0.163D+01-0.594D+01 0.524D+01
 Gap=     0.402 Goal=   None    Shift=    0.000
 Gap=     0.351 Goal=   None    Shift=    0.000
 RMSDP=1.86D-06 MaxDP=7.50D-05 DE=-3.43D-10 OVMax= 2.04D-04

 Cycle  27  Pass 1  IDiag  1:
 E= -435.085900288336     Delta-E=       -0.000000000975 Rises=F Damp=F
 DIIS: error= 8.07D-07 at cycle  27 NSaved=   6.
 NSaved= 6 IEnMin= 6 EnMin= -435.085900288336     IErMin= 6 ErrMin= 8.07D-07
 ErrMax= 8.07D-07  0.00D+00 EMaxC= 1.00D-01 BMatC= 1.25D-11 BMatP= 1.26D-11
 IDIUse=1 WtCom= 1.00D+00 WtEn= 0.00D+00
 Large coefficients: NSaved=  6 BigCof=   38.50 CofMax=   10.00 Det=-4.22D-16
 Inversion failed.  Reducing to  5 matrices.
 Large coefficients: NSaved=  5 BigCof=   18.35 CofMax=   10.00 Det=-1.50D-15
 Inversion failed.  Reducing to  4 matrices.
 Coeff-Com: -0.708D+00 0.595D+00-0.214D+01 0.325D+01
 Coeff:     -0.708D+00 0.595D+00-0.214D+01 0.325D+01
 Gap=     0.402 Goal=   None    Shift=    0.000
 Gap=     0.351 Goal=   None    Shift=    0.000
 RMSDP=4.51D-06 MaxDP=1.82D-04 DE=-9.75D-10 OVMax= 4.96D-04

 Cycle  28  Pass 1  IDiag  1:
 E= -435.085900290691     Delta-E=       -0.000000002355 Rises=F Damp=F
 DIIS: error= 8.00D-07 at cycle  28 NSaved=   5.
 NSaved= 5 IEnMin= 5 EnMin= -435.085900290691     IErMin= 5 ErrMin= 8.00D-07
 ErrMax= 8.00D-07  0.00D+00 EMaxC= 1.00D-01 BMatC= 1.24D-11 BMatP= 1.25D-11
 IDIUse=1 WtCom= 1.00D+00 WtEn= 0.00D+00
 Large coefficients: NSaved=  5 BigCof=   31.46 CofMax=   10.00 Det=-2.44D-15
 Inversion failed.  Reducing to  4 matrices.
 Coeff-Com: -0.495D+01 0.352D+01 0.710D+00 0.172D+01
 Coeff:     -0.495D+01 0.352D+01 0.710D+00 0.172D+01
 Gap=     0.402 Goal=   None    Shift=    0.000
 Gap=     0.351 Goal=   None    Shift=    0.000
 RMSDP=7.05D-06 MaxDP=2.85D-04 DE=-2.35D-09 OVMax= 7.75D-04

 Cycle  29  Pass 1  IDiag  1:
 E= -435.085900294326     Delta-E=       -0.000000003636 Rises=F Damp=F
 DIIS: error= 7.89D-07 at cycle  29 NSaved=   5.
 NSaved= 5 IEnMin= 5 EnMin= -435.085900294326     IErMin= 5 ErrMin= 7.89D-07
 ErrMax= 7.89D-07  0.00D+00 EMaxC= 1.00D-01 BMatC= 1.22D-11 BMatP= 1.24D-11
 IDIUse=1 WtCom= 1.00D+00 WtEn= 0.00D+00
 Large coefficients: NSaved=  5 BigCof=   34.41 CofMax=   10.00 Det=-9.94D-16
 Inversion failed.  Reducing to  4 matrices.
 Coeff-Com: -0.957D+00-0.261D+01 0.148D+01 0.309D+01
 Coeff:     -0.957D+00-0.261D+01 0.148D+01 0.309D+01
 Gap=     0.402 Goal=   None    Shift=    0.000
 Gap=     0.351 Goal=   None    Shift=    0.000
 RMSDP=3.11D-05 MaxDP=1.26D-03 DE=-3.64D-09 OVMax= 3.42D-03

 Cycle  30  Pass 1  IDiag  1:
 E= -435.085900309762     Delta-E=       -0.000000015436 Rises=F Damp=F
 DIIS: error= 9.84D-07 at cycle  30 NSaved=   5.
 NSaved= 5 IEnMin= 5 EnMin= -435.085900309762     IErMin= 4 ErrMin= 7.89D-07
 ErrMax= 9.84D-07  0.00D+00 EMaxC= 1.00D-01 BMatC= 3.90D-11 BMatP= 1.22D-11
 IDIUse=1 WtCom= 1.00D+00 WtEn= 0.00D+00
 Large coefficients: NSaved=  5 BigCof=   32.30 CofMax=   10.00 Det=-5.01D-15
 Inversion failed.  Reducing to  4 matrices.
 Coeff-Com: -0.820D+01 0.205D+01 0.772D+01-0.564D+00
 Coeff:     -0.820D+01 0.205D+01 0.772D+01-0.564D+00
 Gap=     0.402 Goal=   None    Shift=    0.000
 Gap=     0.351 Goal=   None    Shift=    0.000
 RMSDP=3.17D-05 MaxDP=1.28D-03 DE=-1.54D-08 OVMax= 3.49D-03

 Cycle  31  Pass 1  IDiag  1:
 E= -435.085900324385     Delta-E=       -0.000000014623 Rises=F Damp=F
 DIIS: error= 3.36D-06 at cycle  31 NSaved=   5.
 NSaved= 5 IEnMin= 5 EnMin= -435.085900324385     IErMin= 3 ErrMin= 7.89D-07
 ErrMax= 3.36D-06  0.00D+00 EMaxC= 1.00D-01 BMatC= 4.55D-10 BMatP= 1.22D-11
 IDIUse=1 WtCom= 1.00D+00 WtEn= 0.00D+00
 Coeff-Com:  0.313D+01-0.820D+00-0.681D+01 0.719D+01-0.169D+01
 Coeff:      0.313D+01-0.820D+00-0.681D+01 0.719D+01-0.169D+01
 Gap=     0.402 Goal=   None    Shift=    0.000
 Gap=     0.351 Goal=   None    Shift=    0.000
 RMSDP=2.45D-05 MaxDP=9.94D-04 DE=-1.46D-08 OVMax= 2.70D-03

 Cycle  32  Pass 1  IDiag  1:
 E= -435.085900334993     Delta-E=       -0.000000010608 Rises=F Damp=F
 DIIS: error= 4.31D-06 at cycle  32 NSaved=   6.
 NSaved= 6 IEnMin= 6 EnMin= -435.085900334993     IErMin= 3 ErrMin= 7.89D-07
 ErrMax= 4.31D-06  0.00D+00 EMaxC= 1.00D-01 BMatC= 7.29D-10 BMatP= 1.22D-11
 IDIUse=1 WtCom= 1.00D+00 WtEn= 0.00D+00
 Large coefficients: NSaved=  6 BigCof=   13.70 CofMax=   10.00 Det=-1.68D-15
 Inversion failed.  Reducing to  5 matrices.
 Coeff-Com:  0.209D+00-0.313D+01 0.605D+01-0.456D+01 0.243D+01
 Coeff:      0.209D+00-0.313D+01 0.605D+01-0.456D+01 0.243D+01
 Gap=     0.402 Goal=   None    Shift=    0.000
 Gap=     0.351 Goal=   None    Shift=    0.000
 RMSDP=2.53D-05 MaxDP=1.03D-03 DE=-1.06D-08 OVMax= 2.79D-03

 Cycle  33  Pass 1  IDiag  1:
 E= -435.085900345392     Delta-E=       -0.000000010399 Rises=F Damp=F
 DIIS: error= 3.92D-06 at cycle  33 NSaved=   6.
 NSaved= 6 IEnMin= 6 EnMin= -435.085900345392     IErMin= 2 ErrMin= 7.89D-07
 ErrMax= 3.92D-06  0.00D+00 EMaxC= 1.00D-01 BMatC= 5.95D-10 BMatP= 1.22D-11
 IDIUse=1 WtCom= 1.00D+00 WtEn= 0.00D+00
 Coeff-Com:  0.301D+00-0.216D+01 0.509D+01-0.724D+01 0.204D+01 0.296D+01
 Coeff:      0.301D+00-0.216D+01 0.509D+01-0.724D+01 0.204D+01 0.296D+01
 Gap=     0.402 Goal=   None    Shift=    0.000
 Gap=     0.351 Goal=   None    Shift=    0.000
 RMSDP=1.01D-04 MaxDP=4.08D-03 DE=-1.04D-08 OVMax= 1.11D-02

 Cycle  34  Pass 1  IDiag  1:
 E= -435.085900379297     Delta-E=       -0.000000033906 Rises=F Damp=F
 DIIS: error= 1.01D-05 at cycle  34 NSaved=   7.
 NSaved= 7 IEnMin= 7 EnMin= -435.085900379297     IErMin= 2 ErrMin= 7.89D-07
 ErrMax= 1.01D-05  0.00D+00 EMaxC= 1.00D-01 BMatC= 3.79D-09 BMatP= 1.22D-11
 IDIUse=1 WtCom= 1.00D+00 WtEn= 0.00D+00
 Coeff-Com:  0.276D+00-0.217D+01 0.517D+01-0.713D+01 0.193D+01 0.290D+01
 Coeff-Com:  0.288D-01
 Coeff:      0.276D+00-0.217D+01 0.517D+01-0.713D+01 0.193D+01 0.290D+01
 Coeff:      0.288D-01
 Gap=     0.402 Goal=   None    Shift=    0.000
 Gap=     0.351 Goal=   None    Shift=    0.000
 RMSDP=1.08D-06 MaxDP=4.39D-05 DE=-3.39D-08 OVMax= 1.19D-04

 Cycle  35  Pass 1  IDiag  1:
 E= -435.085900379049     Delta-E=        0.000000000248 Rises=F Damp=F
 DIIS: error= 9.66D-06 at cycle  35 NSaved=   8.
 NSaved= 8 IEnMin= 7 EnMin= -435.085900379297     IErMin= 2 ErrMin= 7.89D-07
 ErrMax= 9.66D-06  0.00D+00 EMaxC= 1.00D-01 BMatC= 3.49D-09 BMatP= 1.22D-11
 IDIUse=1 WtCom= 1.00D+00 WtEn= 0.00D+00
 Large coefficients: NSaved=  8 BigCof=   85.72 CofMax=   10.00 Det=-8.13D-16
 Inversion failed.  Reducing to  7 matrices.
 Large coefficients: NSaved=  7 BigCof=   85.31 CofMax=   10.00 Det=-8.19D-16
 Inversion failed.  Reducing to  6 matrices.
 Large coefficients: NSaved=  6 BigCof=   85.51 CofMax=   10.00 Det=-8.66D-16
 Inversion failed.  Reducing to  5 matrices.
 Large coefficients: NSaved=  5 BigCof=   39.84 CofMax=   10.00 Det=-6.44D-15
 Inversion failed.  Reducing to  4 matrices.
 Large coefficients: NSaved=  4 BigCof=   40.01 CofMax=   10.00 Det=-6.79D-15
 Inversion failed.  Reducing to  3 matrices.
 Large coefficients: NSaved=  3 BigCof=   40.47 CofMax=   10.00 Det=-6.81D-15
 Inversion failed.  Reducing to  2 matrices.
 Large coefficients: NSaved=  2 BigCof=   24.81 CofMax=   10.00 Det=-6.15D-12
 Coeff-Com: -0.238D+02 0.248D+02
 Coeff:     -0.238D+02 0.248D+02
 Gap=     0.402 Goal=   None    Shift=    0.000
 Gap=     0.351 Goal=   None    Shift=    0.000
 RMSDP=2.57D-05 MaxDP=1.04D-03 DE= 2.48D-10 OVMax= 2.83D-03

 Cycle  36  Pass 1  IDiag  1:
 E= -435.085900371961     Delta-E=        0.000000007088 Rises=F Damp=F
 DIIS: error= 5.54D-07 at cycle  36 NSaved=   3.
 NSaved= 3 IEnMin= 1 EnMin= -435.085900379297     IErMin= 3 ErrMin= 5.54D-07
 ErrMax= 5.54D-07  0.00D+00 EMaxC= 1.00D-01 BMatC= 1.20D-11 BMatP= 3.49D-09
 IDIUse=1 WtCom= 1.00D+00 WtEn= 0.00D+00
 Coeff-Com:  0.137D+01-0.147D+01 0.111D+01
 Coeff:      0.137D+01-0.147D+01 0.111D+01
 Gap=     0.402 Goal=   None    Shift=    0.000
 Gap=     0.351 Goal=   None    Shift=    0.000
 RMSDP=1.27D-06 MaxDP=5.16D-05 DE= 7.09D-09 OVMax= 1.40D-04

 Cycle  37  Pass 1  IDiag  1:
 E= -435.085900371554     Delta-E=        0.000000000407 Rises=F Damp=F
 DIIS: error= 4.95D-07 at cycle  37 NSaved=   4.
 NSaved= 4 IEnMin= 1 EnMin= -435.085900379297     IErMin= 4 ErrMin= 4.95D-07
 ErrMax= 4.95D-07  0.00D+00 EMaxC= 1.00D-01 BMatC= 4.75D-12 BMatP= 1.20D-11
 IDIUse=1 WtCom= 1.00D+00 WtEn= 0.00D+00
 Coeff-Com:  0.703D+01-0.733D+01 0.286D+00 0.102D+01
 Coeff:      0.703D+01-0.733D+01 0.286D+00 0.102D+01
 Gap=     0.402 Goal=   None    Shift=    0.000
 Gap=     0.351 Goal=   None    Shift=    0.000
 RMSDP=3.38D-07 MaxDP=1.37D-05 DE= 4.07D-10 OVMax= 3.71D-05

 Cycle  38  Pass 1  IDiag  1:
 E= -435.085900371446     Delta-E=        0.000000000108 Rises=F Damp=F
 DIIS: error= 4.95D-07 at cycle  38 NSaved=   5.
 NSaved= 5 IEnMin= 1 EnMin= -435.085900379297     IErMin= 4 ErrMin= 4.95D-07
 ErrMax= 4.95D-07  0.00D+00 EMaxC= 1.00D-01 BMatC= 5.27D-12 BMatP= 4.75D-12
 IDIUse=1 WtCom= 1.00D+00 WtEn= 0.00D+00
 Large coefficients: NSaved=  5 BigCof=   18.71 CofMax=   10.00 Det=-5.27D-17
 Inversion failed.  Reducing to  4 matrices.
 Coeff-Com: -0.561D+00 0.599D+00-0.135D+00 0.110D+01
 Coeff:     -0.561D+00 0.599D+00-0.135D+00 0.110D+01
 Gap=     0.402 Goal=   None    Shift=    0.000
 Gap=     0.351 Goal=   None    Shift=    0.000
 RMSDP=3.90D-07 MaxDP=1.58D-05 DE= 1.08D-10 OVMax= 4.29D-05

 Cycle  39  Pass 1  IDiag  1:
 E= -435.085900371573     Delta-E=       -0.000000000126 Rises=F Damp=F
 DIIS: error= 4.95D-07 at cycle  39 NSaved=   5.
 NSaved= 5 IEnMin= 1 EnMin= -435.085900379297     IErMin= 5 ErrMin= 4.95D-07
 ErrMax= 4.95D-07  0.00D+00 EMaxC= 1.00D-01 BMatC= 4.71D-12 BMatP= 4.75D-12
 IDIUse=1 WtCom= 1.00D+00 WtEn= 0.00D+00
 Coeff-Com: -0.536D+01 0.558D+01-0.107D+01-0.770D+00 0.263D+01
 Coeff:     -0.536D+01 0.558D+01-0.107D+01-0.770D+00 0.263D+01
 Gap=     0.402 Goal=   None    Shift=    0.000
 Gap=     0.351 Goal=   None    Shift=    0.000
 RMSDP=3.63D-07 MaxDP=1.47D-05 DE=-1.26D-10 OVMax= 3.99D-05

 Cycle  40  Pass 1  IDiag  1:
 E= -435.085900371687     Delta-E=       -0.000000000114 Rises=F Damp=F
 DIIS: error= 4.94D-07 at cycle  40 NSaved=   6.
 NSaved= 6 IEnMin= 1 EnMin= -435.085900379297     IErMin= 6 ErrMin= 4.94D-07
 ErrMax= 4.94D-07  0.00D+00 EMaxC= 1.00D-01 BMatC= 5.09D-12 BMatP= 4.71D-12
 IDIUse=1 WtCom= 1.00D+00 WtEn= 0.00D+00
 Large coefficients: NSaved=  6 BigCof=   19.80 CofMax=   10.00 Det=-3.54D-17
 Inversion failed.  Reducing to  5 matrices.
 Coeff-Com: -0.422D+01 0.441D+01-0.104D+01 0.325D+01-0.141D+01
 Coeff:     -0.422D+01 0.441D+01-0.104D+01 0.325D+01-0.141D+01
 Gap=     0.402 Goal=   None    Shift=    0.000
 Gap=     0.351 Goal=   None    Shift=    0.000
 RMSDP=2.13D-07 MaxDP=8.65D-06 DE=-1.14D-10 OVMax= 2.34D-05

 Cycle  41  Pass 1  IDiag  1:
 E= -435.085900371619     Delta-E=        0.000000000068 Rises=F Damp=F
 DIIS: error= 4.95D-07 at cycle  41 NSaved=   6.
 NSaved= 6 IEnMin= 1 EnMin= -435.085900379297     IErMin= 5 ErrMin= 4.94D-07
 ErrMax= 4.95D-07  0.00D+00 EMaxC= 1.00D-01 BMatC= 4.89D-12 BMatP= 4.71D-12
 IDIUse=1 WtCom= 1.00D+00 WtEn= 0.00D+00
 Large coefficients: NSaved=  6 BigCof=   28.31 CofMax=   10.00 Det=-4.79D-17
 Inversion failed.  Reducing to  5 matrices.
 Large coefficients: NSaved=  5 BigCof=   23.71 CofMax=   10.00 Det=-5.44D-17
 Inversion failed.  Reducing to  4 matrices.
 Coeff-Com: -0.108D+01 0.111D+01 0.220D+01-0.124D+01
 Coeff:     -0.108D+01 0.111D+01 0.220D+01-0.124D+01
 Gap=     0.402 Goal=   None    Shift=    0.000
 Gap=     0.351 Goal=   None    Shift=    0.000
 RMSDP=1.51D-07 MaxDP=6.14D-06 DE= 6.80D-11 OVMax= 1.66D-05

 Cycle  42  Pass 1  IDiag  1:
 E= -435.085900371668     Delta-E=       -0.000000000049 Rises=F Damp=F
 DIIS: error= 4.94D-07 at cycle  42 NSaved=   5.
 NSaved= 5 IEnMin= 1 EnMin= -435.085900379297     IErMin= 3 ErrMin= 4.94D-07
 ErrMax= 4.94D-07  0.00D+00 EMaxC= 1.00D-01 BMatC= 4.72D-12 BMatP= 4.89D-12
 IDIUse=1 WtCom= 1.00D+00 WtEn= 0.00D+00
 Large coefficients: NSaved=  5 BigCof=   28.30 CofMax=   10.00 Det=-5.29D-17
 Inversion failed.  Reducing to  4 matrices.
 Coeff-Com: -0.124D+01 0.129D+01-0.166D+01 0.261D+01
 Coeff:     -0.124D+01 0.129D+01-0.166D+01 0.261D+01
 Gap=     0.402 Goal=   None    Shift=    0.000
 Gap=     0.351 Goal=   None    Shift=    0.000
 RMSDP=4.51D-07 MaxDP=1.83D-05 DE=-4.88D-11 OVMax= 4.96D-05

 Cycle  43  Pass 1  IDiag  1:
 E= -435.085900371813     Delta-E=       -0.000000000145 Rises=F Damp=F
 DIIS: error= 4.94D-07 at cycle  43 NSaved=   5.
 NSaved= 5 IEnMin= 1 EnMin= -435.085900379297     IErMin= 5 ErrMin= 4.94D-07
 ErrMax= 4.94D-07  0.00D+00 EMaxC= 1.00D-01 BMatC= 4.70D-12 BMatP= 4.72D-12
 IDIUse=1 WtCom= 1.00D+00 WtEn= 0.00D+00
 Coeff-Com:  0.131D+01-0.136D+01-0.148D+01-0.271D+01 0.524D+01
 Coeff:      0.131D+01-0.136D+01-0.148D+01-0.271D+01 0.524D+01
 Gap=     0.402 Goal=   None    Shift=    0.000
 Gap=     0.351 Goal=   None    Shift=    0.000
 RMSDP=2.29D-06 MaxDP=9.30D-05 DE=-1.45D-10 OVMax= 2.52D-04

 Cycle  44  Pass 1  IDiag  1:
 E= -435.085900372546     Delta-E=       -0.000000000732 Rises=F Damp=F
 DIIS: error= 4.90D-07 at cycle  44 NSaved=   6.
 NSaved= 6 IEnMin= 1 EnMin= -435.085900379297     IErMin= 6 ErrMin= 4.90D-07
 ErrMax= 4.90D-07  0.00D+00 EMaxC= 1.00D-01 BMatC= 4.65D-12 BMatP= 4.70D-12
 IDIUse=1 WtCom= 1.00D+00 WtEn= 0.00D+00
 Large coefficients: NSaved=  6 BigCof=  134.50 CofMax=   10.00 Det=-7.50D-17
 Inversion failed.  Reducing to  5 matrices.
 Coeff-Com: -0.331D+01 0.347D+01-0.632D+01 0.379D+01 0.337D+01
 Coeff:     -0.331D+01 0.347D+01-0.632D+01 0.379D+01 0.337D+01
 Gap=     0.402 Goal=   None    Shift=    0.000
 Gap=     0.351 Goal=   None    Shift=    0.000
 RMSDP=8.80D-06 MaxDP=3.57D-04 DE=-7.32D-10 OVMax= 9.68D-04

 Cycle  45  Pass 1  IDiag  1:
 E= -435.085900375306     Delta-E=       -0.000000002760 Rises=F Damp=F
 DIIS: error= 4.76D-07 at cycle  45 NSaved=   6.
 NSaved= 6 IEnMin= 1 EnMin= -435.085900379297     IErMin= 6 ErrMin= 4.76D-07
 ErrMax= 4.76D-07  0.00D+00 EMaxC= 1.00D-01 BMatC= 4.97D-12 BMatP= 4.65D-12
 IDIUse=1 WtCom= 1.00D+00 WtEn= 0.00D+00
 Large coefficients: NSaved=  6 BigCof=  250.84 CofMax=   10.00 Det=-6.39D-17
 Inversion failed.  Reducing to  5 matrices.
 Coeff-Com: -0.681D+00 0.671D+00-0.234D+01-0.122D+00 0.347D+01
 Coeff:     -0.681D+00 0.671D+00-0.234D+01-0.122D+00 0.347D+01
 Gap=     0.402 Goal=   None    Shift=    0.000
 Gap=     0.351 Goal=   None    Shift=    0.000
 RMSDP=2.61D-05 MaxDP=1.06D-03 DE=-2.76D-09 OVMax= 2.87D-03

 Cycle  46  Pass 1  IDiag  1:
 E= -435.085900383024     Delta-E=       -0.000000007718 Rises=F Damp=F
 DIIS: error= 6.65D-07 at cycle  46 NSaved=   6.
 NSaved= 6 IEnMin= 6 EnMin= -435.085900383024     IErMin= 5 ErrMin= 4.76D-07
 ErrMax= 6.65D-07  0.00D+00 EMaxC= 1.00D-01 BMatC= 1.88D-11 BMatP= 4.65D-12
 IDIUse=1 WtCom= 1.00D+00 WtEn= 0.00D+00
 Large coefficients: NSaved=  6 BigCof=   36.18 CofMax=   10.00 Det=-5.83D-16
 Inversion failed.  Reducing to  5 matrices.
 Large coefficients: NSaved=  5 BigCof=   22.54 CofMax=   10.00 Det=-5.85D-16
 Inversion failed.  Reducing to  4 matrices.
 Large coefficients: NSaved=  4 BigCof=   23.24 CofMax=   10.00 Det=-5.87D-16
 Inversion failed.  Reducing to  3 matrices.
 Coeff-Com: -0.179D+00-0.207D+01 0.325D+01
 Coeff:     -0.179D+00-0.207D+01 0.325D+01
 Gap=     0.402 Goal=   None    Shift=    0.000
 Gap=     0.351 Goal=   None    Shift=    0.000
 RMSDP=5.58D-05 MaxDP=2.27D-03 DE=-7.72D-09 OVMax= 6.13D-03

 Cycle  47  Pass 1  IDiag  1:
 E= -435.085900397094     Delta-E=       -0.000000014070 Rises=F Damp=F
 DIIS: error= 2.82D-06 at cycle  47 NSaved=   4.
 NSaved= 4 IEnMin= 4 EnMin= -435.085900397094     IErMin= 2 ErrMin= 4.76D-07
 ErrMax= 2.82D-06  0.00D+00 EMaxC= 1.00D-01 BMatC= 3.06D-10 BMatP= 4.97D-12
 IDIUse=1 WtCom= 1.00D+00 WtEn= 0.00D+00
 Coeff-Com: -0.475D+00-0.130D+01 0.134D+01 0.143D+01
 Coeff:     -0.475D+00-0.130D+01 0.134D+01 0.143D+01
 Gap=     0.402 Goal=   None    Shift=    0.000
 Gap=     0.351 Goal=   None    Shift=    0.000
 RMSDP=6.29D-05 MaxDP=2.56D-03 DE=-1.41D-08 OVMax= 6.91D-03

 Cycle  48  Pass 1  IDiag  1:
 E= -435.085900408873     Delta-E=       -0.000000011779 Rises=F Damp=F
 DIIS: error= 6.61D-06 at cycle  48 NSaved=   5.
 NSaved= 5 IEnMin= 5 EnMin= -435.085900408873     IErMin= 2 ErrMin= 4.76D-07
 ErrMax= 6.61D-06  0.00D+00 EMaxC= 1.00D-01 BMatC= 1.64D-09 BMatP= 4.97D-12
 IDIUse=1 WtCom= 1.00D+00 WtEn= 0.00D+00
 Coeff-Com: -0.516D+00-0.643D+00 0.803D+00 0.112D+01 0.239D+00
 Coeff:     -0.516D+00-0.643D+00 0.803D+00 0.112D+01 0.239D+00
 Gap=     0.402 Goal=   None    Shift=    0.000
 Gap=     0.351 Goal=   None    Shift=    0.000
 RMSDP=6.08D-06 MaxDP=2.47D-04 DE=-1.18D-08 OVMax= 6.69D-04

 Cycle  49  Pass 1  IDiag  1:
 E= -435.085900408124     Delta-E=        0.000000000749 Rises=F Damp=F
 DIIS: error= 3.94D-06 at cycle  49 NSaved=   6.
 NSaved= 6 IEnMin= 5 EnMin= -435.085900408873     IErMin= 2 ErrMin= 4.76D-07
 ErrMax= 3.94D-06  0.00D+00 EMaxC= 1.00D-01 BMatC= 5.89D-10 BMatP= 4.97D-12
 IDIUse=1 WtCom= 1.00D+00 WtEn= 0.00D+00
 Coeff-Com:  0.585D+00 0.981D+00-0.269D+01-0.118D+01-0.528D+01 0.859D+01
 Coeff:      0.585D+00 0.981D+00-0.269D+01-0.118D+01-0.528D+01 0.859D+01
 Gap=     0.402 Goal=   None    Shift=    0.000
 Gap=     0.351 Goal=   None    Shift=    0.000
 RMSDP=1.30D-04 MaxDP=5.31D-03 DE= 7.49D-10 OVMax= 1.43D-02

 Cycle  50  Pass 1  IDiag  1:
 E= -435.085900418565     Delta-E=       -0.000000010441 Rises=F Damp=F
 DIIS: error= 1.74D-05 at cycle  50 NSaved=   7.
 NSaved= 7 IEnMin= 7 EnMin= -435.085900418565     IErMin= 2 ErrMin= 4.76D-07
 ErrMax= 1.74D-05  0.00D+00 EMaxC= 1.00D-01 BMatC= 1.12D-08 BMatP= 4.97D-12
 IDIUse=1 WtCom= 1.00D+00 WtEn= 0.00D+00
 Coeff-Com:  0.972D+00-0.342D+01 0.211D+01-0.238D+00-0.892D+01 0.994D+01
 Coeff-Com:  0.561D+00
 Coeff:      0.972D+00-0.342D+01 0.211D+01-0.238D+00-0.892D+01 0.994D+01
 Coeff:      0.561D+00
 Gap=     0.402 Goal=   None    Shift=    0.000
 Gap=     0.351 Goal=   None    Shift=    0.000
 RMSDP=2.00D-05 MaxDP=8.13D-04 DE=-1.04D-08 OVMax= 2.20D-03

 Cycle  51  Pass 1  IDiag  1:
 E= -435.085900416467     Delta-E=        0.000000002098 Rises=F Damp=F
 DIIS: error= 2.45D-05 at cycle  51 NSaved=   8.
 NSaved= 8 IEnMin= 7 EnMin= -435.085900418565     IErMin= 2 ErrMin= 4.76D-07
 ErrMax= 2.45D-05  0.00D+00 EMaxC= 1.00D-01 BMatC= 2.21D-08 BMatP= 4.97D-12
 IDIUse=1 WtCom= 1.00D+00 WtEn= 0.00D+00
 Coeff-Com:  0.795D+00-0.599D+01 0.585D+01 0.570D+00-0.852D+01 0.683D+01
 Coeff-Com:  0.264D+01-0.119D+01
 Coeff:      0.795D+00-0.599D+01 0.585D+01 0.570D+00-0.852D+01 0.683D+01
 Coeff:      0.264D+01-0.119D+01
 Gap=     0.402 Goal=   None    Shift=    0.000
 Gap=     0.351 Goal=   None    Shift=    0.000
 RMSDP=5.10D-06 MaxDP=2.08D-04 DE= 2.10D-09 OVMax= 5.61D-04

 Cycle  52  Pass 1  IDiag  1:
 E= -435.085900417747     Delta-E=       -0.000000001280 Rises=F Damp=F
 DIIS: error= 2.13D-05 at cycle  52 NSaved=   9.
 NSaved= 9 IEnMin= 7 EnMin= -435.085900418565     IErMin= 2 ErrMin= 4.76D-07
 ErrMax= 2.13D-05  0.00D+00 EMaxC= 1.00D-01 BMatC= 1.67D-08 BMatP= 4.97D-12
 IDIUse=1 WtCom= 1.00D+00 WtEn= 0.00D+00
 Coeff-Com:  0.543D+00-0.579D+01 0.615D+01 0.834D+00-0.617D+01 0.377D+01
 Coeff-Com:  0.288D+01-0.284D+01 0.162D+01
 Coeff:      0.543D+00-0.579D+01 0.615D+01 0.834D+00-0.617D+01 0.377D+01
 Coeff:      0.288D+01-0.284D+01 0.162D+01
 Gap=     0.402 Goal=   None    Shift=    0.000
 Gap=     0.351 Goal=   None    Shift=    0.000
 RMSDP=3.09D-06 MaxDP=1.26D-04 DE=-1.28D-09 OVMax= 3.39D-04

 Cycle  53  Pass 1  IDiag  1:
 E= -435.085900419644     Delta-E=       -0.000000001897 Rises=F Damp=F
 DIIS: error= 1.52D-05 at cycle  53 NSaved=  10.
 NSaved=10 IEnMin=10 EnMin= -435.085900419644     IErMin= 2 ErrMin= 4.76D-07
 ErrMax= 1.52D-05  0.00D+00 EMaxC= 1.00D-01 BMatC= 8.50D-09 BMatP= 4.97D-12
 IDIUse=1 WtCom= 1.00D+00 WtEn= 0.00D+00
 Coeff-Com:  0.159D+00-0.853D-01-0.204D+00-0.135D+00-0.758D+00 0.121D+01
 Coeff-Com: -0.765D-01-0.113D+01-0.425D+00 0.245D+01
 Coeff:      0.159D+00-0.853D-01-0.204D+00-0.135D+00-0.758D+00 0.121D+01
 Coeff:     -0.765D-01-0.113D+01-0.425D+00 0.245D+01
 Gap=     0.402 Goal=   None    Shift=    0.000
 Gap=     0.351 Goal=   None    Shift=    0.000
 RMSDP=2.07D-06 MaxDP=8.26D-05 DE=-1.90D-09 OVMax= 2.24D-04

 Cycle  54  Pass 1  IDiag  1:
 E= -435.085900421552     Delta-E=       -0.000000001908 Rises=F Damp=F
 DIIS: error= 2.31D-06 at cycle  54 NSaved=  11.
 NSaved=11 IEnMin=11 EnMin= -435.085900421552     IErMin= 2 ErrMin= 4.76D-07
 ErrMax= 2.31D-06  0.00D+00 EMaxC= 1.00D-01 BMatC= 1.97D-10 BMatP= 4.97D-12
 IDIUse=1 WtCom= 1.00D+00 WtEn= 0.00D+00
 Coeff-Com: -0.440D-01 0.875D-01-0.255D-01 0.213D-01 0.169D+00-0.252D+00
 Coeff-Com: -0.323D-01 0.628D+00-0.576D-02-0.120D+01 0.166D+01
 Coeff:     -0.440D-01 0.875D-01-0.255D-01 0.213D-01 0.169D+00-0.252D+00
 Coeff:     -0.323D-01 0.628D+00-0.576D-02-0.120D+01 0.166D+01
 Gap=     0.402 Goal=   None    Shift=    0.000
 Gap=     0.351 Goal=   None    Shift=    0.000
 RMSDP=1.01D-07 MaxDP=6.93D-06 DE=-1.91D-09 OVMax= 6.52D-06

 Cycle  55  Pass 1  IDiag  1:
 E= -435.085900421594     Delta-E=       -0.000000000041 Rises=F Damp=F
 DIIS: error= 6.22D-07 at cycle  55 NSaved=  12.
 NSaved=12 IEnMin=12 EnMin= -435.085900421594     IErMin= 2 ErrMin= 4.76D-07
 ErrMax= 6.22D-07  0.00D+00 EMaxC= 1.00D-01 BMatC= 1.43D-11 BMatP= 4.97D-12
 IDIUse=1 WtCom= 1.00D+00 WtEn= 0.00D+00
 Coeff-Com:  0.386D-02 0.110D-01-0.218D-01-0.461D-02 0.779D-02 0.129D-01
 Coeff-Com: -0.899D-02-0.109D+00 0.206D-01 0.259D+00-0.389D+00 0.122D+01
 Coeff:      0.386D-02 0.110D-01-0.218D-01-0.461D-02 0.779D-02 0.129D-01
 Coeff:     -0.899D-02-0.109D+00 0.206D-01 0.259D+00-0.389D+00 0.122D+01
 Gap=     0.402 Goal=   None    Shift=    0.000
 Gap=     0.351 Goal=   None    Shift=    0.000
 RMSDP=3.91D-08 MaxDP=1.55D-06 DE=-4.14D-11 OVMax= 3.80D-06

 Cycle  56  Pass 1  IDiag  1:
 E= -435.085900421599     Delta-E=       -0.000000000005 Rises=F Damp=F
 DIIS: error= 2.89D-08 at cycle  56 NSaved=  13.
 NSaved=13 IEnMin=13 EnMin= -435.085900421599     IErMin=13 ErrMin= 2.89D-08
 ErrMax= 2.89D-08  0.00D+00 EMaxC= 1.00D-01 BMatC= 3.09D-14 BMatP= 4.97D-12
 IDIUse=1 WtCom= 1.00D+00 WtEn= 0.00D+00
 Coeff-Com:  0.234D-02-0.783D-03-0.360D-02-0.191D-02-0.694D-02 0.141D-01
 Coeff-Com:  0.172D-03-0.325D-01-0.424D-02 0.562D-01-0.688D-01-0.203D+00
 Coeff-Com:  0.125D+01
 Coeff:      0.234D-02-0.783D-03-0.360D-02-0.191D-02-0.694D-02 0.141D-01
 Coeff:      0.172D-03-0.325D-01-0.424D-02 0.562D-01-0.688D-01-0.203D+00
 Coeff:      0.125D+01
 Gap=     0.402 Goal=   None    Shift=    0.000
 Gap=     0.351 Goal=   None    Shift=    0.000
 RMSDP=1.61D-08 MaxDP=6.57D-07 DE=-5.23D-12 OVMax= 1.78D-06

 Cycle  57  Pass 1  IDiag  1:
 E= -435.085900421598     Delta-E=        0.000000000001 Rises=F Damp=F
 DIIS: error= 2.91D-08 at cycle  57 NSaved=  14.
 NSaved=14 IEnMin=13 EnMin= -435.085900421599     IErMin=13 ErrMin= 2.89D-08
 ErrMax= 2.91D-08  0.00D+00 EMaxC= 1.00D-01 BMatC= 3.14D-14 BMatP= 3.09D-14
 IDIUse=1 WtCom= 1.00D+00 WtEn= 0.00D+00
 Coeff-Com:  0.491D-04-0.721D-02 0.890D-02 0.155D-02-0.681D-02 0.173D-02
 Coeff-Com:  0.387D-02 0.967D-02 0.112D-03-0.293D-01 0.403D-01-0.690D-01
 Coeff-Com: -0.239D+00 0.128D+01
 Coeff:      0.491D-04-0.721D-02 0.890D-02 0.155D-02-0.681D-02 0.173D-02
 Coeff:      0.387D-02 0.967D-02 0.112D-03-0.293D-01 0.403D-01-0.690D-01
 Coeff:     -0.239D+00 0.128D+01
 Gap=     0.402 Goal=   None    Shift=    0.000
 Gap=     0.351 Goal=   None    Shift=    0.000
 RMSDP=6.68D-10 MaxDP=4.22D-08 DE= 6.82D-13 OVMax= 4.56D-08

 SCF Done:  E(UHF) =  -435.085900422     A.U. after   57 cycles
            NFock= 57  Conv=0.67D-09     -V/T= 2.0036
 <Sx>= 0.0000 <Sy>= 0.0000 <Sz>= 0.5000 <S**2>= 0.7527 S= 0.5013
 <L.S>= 0.000000000000E+00
 KE= 4.335301961212D+02 PE=-1.300574718184D+03 EE= 2.952578948844D+02
 Annihilation of the first spin contaminant:
 S**2 before annihilation     0.7527,   after     0.7500
 Leave Link  502 at Sat Mar  4 13:40:26 2017, MaxMem=   655360000 cpu:         4.9
 (Enter /mnt/software/gaussian/g09/l801.exe)
 Range of M.O.s used for correlation:     1    75
 NBasis=    75 NAE=    21 NBE=    20 NFC=     0 NFV=     0
 NROrb=     75 NOA=    21 NOB=    20 NVA=    54 NVB=    55
 Leave Link  801 at Sat Mar  4 13:40:26 2017, MaxMem=   655360000 cpu:         0.1
 (Enter /mnt/software/gaussian/g09/l1002.exe)
 Minotr:  UHF open shell wavefunction.
          Direct CPHF calculation.
          Differentiating once with respect to electric field.
                with respect to dipole field.
          Electric field/nuclear overlap derivatives assumed to be zero.
          Requested convergence is 1.0D-08 RMS, and 1.0D-07 maximum.
          Secondary convergence is 1.0D-12 RMS, and 1.0D-12 maximum.
          NewPWx=F KeepS1=T KeepF1=T KeepIn=T MapXYZ=F SortEE=F KeepMc=T.
          MDV=     655359806 using IRadAn=       2.
 Keep R1 and R2 ints in memory in canonical form, NReq=8971427.
 FoFCou: FMM=F IPFlag=           0 FMFlag=           0 FMFlg1=           0
         NFxFlg=           0 DoJE=F BraDBF=F KetDBF=F FulRan=T
         wScrn=  0.000000 ICntrl=     600 IOpCl=  0 I1Cent=           0 NGrid=           0
         NMat0=    1 NMatS0=   2850 NMatT0=    0 NMatD0=    1 NMtDS0=    0 NMtDT0=    0
 Symmetry not used in FoFCou.
          Solving linear equations simultaneously, MaxMat=       0.
          There are     3 degrees of freedom in the 1st order CPHF.  IDoFFX=0 NUNeed=     3.
      3 vectors produced by pass  0 Test12= 7.45D-14 3.33D-08 XBig12= 5.18D+00 7.07D-01.
 AX will form     3 AO Fock derivatives at one time.
      3 vectors produced by pass  1 Test12= 7.45D-14 3.33D-08 XBig12= 3.83D-01 1.09D-01.
      3 vectors produced by pass  2 Test12= 7.45D-14 3.33D-08 XBig12= 5.79D-02 8.26D-02.
      3 vectors produced by pass  3 Test12= 7.45D-14 3.33D-08 XBig12= 3.02D-03 1.42D-02.
      3 vectors produced by pass  4 Test12= 7.45D-14 3.33D-08 XBig12= 6.39D-05 1.58D-03.
      3 vectors produced by pass  5 Test12= 7.45D-14 3.33D-08 XBig12= 2.00D-06 3.13D-04.
      3 vectors produced by pass  6 Test12= 7.45D-14 3.33D-08 XBig12= 9.32D-08 6.61D-05.
      3 vectors produced by pass  7 Test12= 7.45D-14 3.33D-08 XBig12= 2.66D-09 3.69D-05.
      3 vectors produced by pass  8 Test12= 7.45D-14 3.33D-08 XBig12= 3.02D-10 1.04D-05.
      3 vectors produced by pass  9 Test12= 7.45D-14 3.33D-08 XBig12= 1.20D-11 1.20D-06.
      3 vectors produced by pass 10 Test12= 7.45D-14 3.33D-08 XBig12= 1.90D-13 9.02D-08.
 InvSVY:  IOpt=1 It=  1 EMax= 1.78D-15
 Solved reduced A of dimension    33 with     3 vectors.
 End of Minotr F.D. properties file   721 does not exist.
 End of Minotr F.D. properties file   722 does not exist.
 End of Minotr F.D. properties file   788 does not exist.
 Leave Link 1002 at Sat Mar  4 13:40:26 2017, MaxMem=   655360000 cpu:         3.0
 (Enter /mnt/software/gaussian/g09/l1101.exe)
 Using compressed storage, NAtomX=     5.
 Will process      6 centers per pass.
 Leave Link 1101 at Sat Mar  4 13:40:26 2017, MaxMem=   655360000 cpu:         0.8
 (Enter /mnt/software/gaussian/g09/l1102.exe)
 Symmetrizing basis deriv contribution to polar:
 IMax=3 JMax=2 DiffMx= 0.00D+00
 Leave Link 1102 at Sat Mar  4 13:40:26 2017, MaxMem=   655360000 cpu:         0.1
 (Enter /mnt/software/gaussian/g09/l1110.exe)
 Forming Gx(P) for the SCF density, NAtomX=     5.
 Integral derivatives from FoFJK, PRISM(SPDF).
 Do as many integral derivatives as possible in FoFJK.
 G2DrvN: MDV=     655359856.
 G2DrvN: will do     6 centers at a time, making    1 passes.
 PxScal for G2LodP:  IOpCl= 1 ISclPx=1 IMOff=     1 NMtTot=     4 NTT=    2850 ScalPx= 1.00D+00
 Calling FoFCou, ICntrl=  3107 FMM=F I1Cent=   0 AccDes= 0.00D+00.
 FoFJK:  IHMeth= 1 ICntrl=    3107 DoSepK=F KAlg= 0 I1Cent=   0 FoldK=F
 IRaf=         0 NMat=   1 IRICut=       1 DoRegI=T DoRafI=F ISym2E= 0.
 FoFCou: FMM=F IPFlag=           0 FMFlag=      100000 FMFlg1=           0
         NFxFlg=           0 DoJE=F BraDBF=F KetDBF=F FulRan=T
         wScrn=  0.000000 ICntrl=    3107 IOpCl=  1 I1Cent=           0 NGrid=           0
         NMat0=    1 NMatS0=      1 NMatT0=    0 NMatD0=    4 NMtDS0=    3 NMtDT0=    0
 Symmetry not used in FoFCou.
 End of G2Drv F.D. properties file   721 does not exist.
 End of G2Drv F.D. properties file   722 does not exist.
 End of G2Drv F.D. properties file   788 does not exist.
 Leave Link 1110 at Sat Mar  4 13:40:27 2017, MaxMem=   655360000 cpu:         2.2
 (Enter /mnt/software/gaussian/g09/l1002.exe)
 Minotr:  UHF open shell wavefunction.
          IDoAtm=11111
          Direct CPHF calculation.
          Differentiating once with respect to electric field.
                with respect to dipole field.
          Differentiating once with respect to nuclear coordinates.
          Requested convergence is 1.0D-08 RMS, and 1.0D-07 maximum.
          Secondary convergence is 1.0D-12 RMS, and 1.0D-12 maximum.
          NewPWx=T KeepS1=F KeepF1=F KeepIn=T MapXYZ=F SortEE=F KeepMc=T.
          MDV=     655359796 using IRadAn=       2.
 Keep R1 and R2 ints in memory in canonical form, NReq=8971542.
 FoFCou: FMM=F IPFlag=           0 FMFlag=           0 FMFlg1=           0
         NFxFlg=           0 DoJE=F BraDBF=F KetDBF=F FulRan=T
         wScrn=  0.000000 ICntrl=     600 IOpCl=  0 I1Cent=           0 NGrid=           0
         NMat0=    1 NMatS0=   2850 NMatT0=    0 NMatD0=    1 NMtDS0=    0 NMtDT0=    0
 Symmetry not used in FoFCou.
          Solving linear equations simultaneously, MaxMat=       0.
          There are    18 degrees of freedom in the 1st order CPHF.  IDoFFX=5 NUNeed=    18.
 Will reuse    3 saved solutions.
     12 vectors produced by pass  0 Test12= 1.24D-14 5.56D-09 XBig12= 1.81D-01 8.18D-02.
 AX will form    12 AO Fock derivatives at one time.
     12 vectors produced by pass  1 Test12= 1.24D-14 5.56D-09 XBig12= 1.64D-02 4.72D-02.
     12 vectors produced by pass  2 Test12= 1.24D-14 5.56D-09 XBig12= 2.32D-03 1.09D-02.
     12 vectors produced by pass  3 Test12= 1.24D-14 5.56D-09 XBig12= 6.81D-05 1.67D-03.
     11 vectors produced by pass  4 Test12= 1.24D-14 5.56D-09 XBig12= 9.95D-07 1.68D-04.
      9 vectors produced by pass  5 Test12= 1.24D-14 5.56D-09 XBig12= 1.29D-08 2.07D-05.
      9 vectors produced by pass  6 Test12= 1.24D-14 5.56D-09 XBig12= 2.07D-10 2.80D-06.
      8 vectors produced by pass  7 Test12= 1.24D-14 5.56D-09 XBig12= 1.37D-12 3.02D-07.
      3 vectors produced by pass  8 Test12= 1.24D-14 5.56D-09 XBig12= 3.09D-14 1.14D-07.
 InvSVY:  IOpt=1 It=  1 EMax= 1.72D-14
 Solved reduced A of dimension    88 with    12 vectors.
 FullF1:  Do perturbations    1 to     3.
 Isotropic polarizability for W=    0.000000       12.57 Bohr**3.
 FullF1:  Do perturbations    1 to     6.
 End of Minotr F.D. properties file   721 does not exist.
 End of Minotr F.D. properties file   722 does not exist.
 End of Minotr F.D. properties file   788 does not exist.
 Leave Link 1002 at Sat Mar  4 13:40:28 2017, MaxMem=   655360000 cpu:         5.2
 (Enter /mnt/software/gaussian/g09/l601.exe)
 Copying SCF densities to generalized density rwf, IOpCl= 1 IROHF=0.

 **********************************************************************

            Population analysis using the SCF density.

 **********************************************************************

 Orbital symmetries:
 Alpha Orbitals:
       Occupied  (A) (A) (A) (A) (A) (A) (A) (A) (A) (A) (A) (A)
                 (A) (A) (A) (A) (A) (A) (A) (A) (A)
       Virtual   (A) (A) (A) (A) (A) (A) (A) (A) (A) (A) (A) (A)
                 (A) (A) (A) (A) (A) (A) (A) (A) (A) (A) (A) (A)
                 (A) (A) (A) (A) (A) (A) (A) (A) (A) (A) (A) (A)
                 (A) (A) (A) (A) (A) (A) (A) (A) (A) (A) (A) (A)
                 (A) (A) (A) (A) (A) (A)
 Beta  Orbitals:
       Occupied  (A) (A) (A) (A) (A) (A) (A) (A) (A) (A) (A) (A)
                 (A) (A) (A) (A) (A) (A) (A) (A)
       Virtual   (A) (A) (A) (A) (A) (A) (A) (A) (A) (A) (A) (A)
                 (A) (A) (A) (A) (A) (A) (A) (A) (A) (A) (A) (A)
                 (A) (A) (A) (A) (A) (A) (A) (A) (A) (A) (A) (A)
                 (A) (A) (A) (A) (A) (A) (A) (A) (A) (A) (A) (A)
                 (A) (A) (A) (A) (A) (A) (A)
 The electronic state is 2-A.
 Alpha  occ. eigenvalues --  -26.75596 -26.73512 -26.73471 -26.43668 -11.98218
 Alpha  occ. eigenvalues --   -2.12180  -2.03045  -2.00316  -1.69049  -1.31441
 Alpha  occ. eigenvalues --   -1.20570  -1.19303  -1.14911  -1.05754  -1.04688
 Alpha  occ. eigenvalues --   -1.02907  -1.01536  -1.00318  -0.85873  -0.75084
 Alpha  occ. eigenvalues --   -0.75081
 Alpha virt. eigenvalues --   -0.34835   0.04855   0.08543   0.11445   0.32920
 Alpha virt. eigenvalues --    0.35696   0.36437   0.39115   1.00578   1.01910
 Alpha virt. eigenvalues --    1.03123   1.03239   1.04459   1.05324   1.26733
 Alpha virt. eigenvalues --    1.28480   1.29314   1.30592   1.31444   1.32943
 Alpha virt. eigenvalues --    1.35346   1.39779   1.39786   1.41930   1.59235
 Alpha virt. eigenvalues --    1.60011   1.70973   1.75477   1.76843   1.78062
 Alpha virt. eigenvalues --    1.81248   1.82490   1.92201   1.96800   2.00491
 Alpha virt. eigenvalues --    2.02216   2.02220   2.07633   2.07633   2.07943
 Alpha virt. eigenvalues --    2.14740   2.33045   2.39340   2.50470   2.73674
 Alpha virt. eigenvalues --    2.74605   3.02723   3.06773   3.09801   3.66296
 Alpha virt. eigenvalues --    4.19109   4.27235   4.31034   4.77341
  Beta  occ. eigenvalues --  -26.75596 -26.73512 -26.73471 -26.38892 -11.98218
  Beta  occ. eigenvalues --   -2.12180  -2.03045  -2.00316  -1.49858  -1.31441
  Beta  occ. eigenvalues --   -1.20570  -1.19303  -1.14911  -1.05754  -1.04688
  Beta  occ. eigenvalues --   -1.02907  -1.01536  -1.00318  -0.69920  -0.69917
  Beta virt. eigenvalues --   -0.34835   0.04855   0.05811   0.08543   0.11445
  Beta virt. eigenvalues --    0.32920   0.35696   0.36437   0.39115   1.00578
  Beta virt. eigenvalues --    1.01910   1.03123   1.04459   1.05324   1.06469
  Beta virt. eigenvalues --    1.26733   1.28480   1.29314   1.30592   1.31444
  Beta virt. eigenvalues --    1.35346   1.41930   1.42304   1.42311   1.55294
  Beta virt. eigenvalues --    1.59235   1.60011   1.70973   1.75477   1.76843
  Beta virt. eigenvalues --    1.78062   1.81248   1.82490   1.92201   1.96800
  Beta virt. eigenvalues --    2.07943   2.08307   2.08307   2.11098   2.11102
  Beta virt. eigenvalues --    2.12201   2.14740   2.33045   2.39340   2.50470
  Beta virt. eigenvalues --    2.73674   2.74605   3.02723   3.06773   3.09801
  Beta virt. eigenvalues --    3.70596   4.19109   4.27235   4.31034   4.77341
          Condensed to atoms (all electrons):
               1          2          3          4          5
     1  C    3.549113   0.365480   0.373140   0.000000   0.362838
     2  F    0.365480   8.833525  -0.029699   0.000000  -0.048373
     3  F    0.373140  -0.029699   8.787965   0.000000  -0.027057
     4  F    0.000000   0.000000   0.000000   9.000000   0.000000
     5  F    0.362838  -0.048373  -0.027057   0.000000   8.836741
          Atomic-Atomic Spin Densities.
               1          2          3          4          5
     1  C    0.000000   0.000000   0.000000   0.000000   0.000000
     2  F    0.000000   0.000000   0.000000   0.000000   0.000000
     3  F    0.000000   0.000000   0.000000   0.000000   0.000000
     4  F    0.000000   0.000000   0.000000   1.000000   0.000000
     5  F    0.000000   0.000000   0.000000   0.000000   0.000000
 Mulliken charges and spin densities:
               1          2
     1  C    1.349430   0.000000
     2  F   -0.120933   0.000000
     3  F   -0.104349   0.000000
     4  F    0.000000   1.000000
     5  F   -0.124149   0.000000
 Sum of Mulliken charges =   1.00000   1.00000
 Mulliken charges and spin densities with hydrogens summed into heavy atoms:
               1          2
     1  C    1.349430   0.000000
     2  F   -0.120933   0.000000
     3  F   -0.104349   0.000000
     4  F    0.000000   1.000000
     5  F   -0.124149   0.000000
 APT charges:
               1
     1  C    1.880158
     2  F   -0.300620
     3  F   -0.286198
     4  F    0.000002
     5  F   -0.293342
 Sum of APT charges =   1.00000
 APT charges with hydrogens summed into heavy atoms:
               1
     1  C    1.880158
     2  F   -0.300620
     3  F   -0.286198
     4  F    0.000002
     5  F   -0.293342
 Electronic spatial extent (au):  <R**2>=           6074.9654
 Charge=              1.0000 electrons
 Dipole moment (field-independent basis, Debye):
    X=            -13.7662    Y=              0.0416    Z=              0.3516  Tot=             13.7708
 Quadrupole moment (field-independent basis, Debye-Ang):
   XX=             18.8518   YY=            -20.6755   ZZ=            -21.1760
   XY=             -0.2177   XZ=             -0.8277   YZ=              0.2897
 Traceless Quadrupole moment (field-independent basis, Debye-Ang):
   XX=             26.5184   YY=            -13.0089   ZZ=            -13.5094
   XY=             -0.2177   XZ=             -0.8277   YZ=              0.2897
 Octapole moment (field-independent basis, Debye-Ang**2):
  XXX=           -123.0276  YYY=              1.1512  ZZZ=             -0.0904  XYY=              3.8668
  XXY=              0.7714  XXZ=              2.1754  XZZ=              0.9491  YZZ=             -0.3760
  YYZ=             -0.7762  XYZ=              5.1805
 Hexadecapole moment (field-independent basis, Debye-Ang**3):
 XXXX=          -4771.1150 YYYY=            -69.5416 ZZZZ=            -64.3785 XXXY=              0.0050
 XXXZ=             -6.2413 YYYX=             -4.0403 YYYZ=             -0.2738 ZZZX=             -0.2289
 ZZZY=              0.3544 XXYY=           -787.4961 XXZZ=           -826.4043 YYZZ=            -22.1896
 XXYZ=             57.1200 YYXZ=              2.5641 ZZXY=              2.2203
 N-N= 1.367007267563D+02 E-N=-1.300574718026D+03  KE= 4.335301961212D+02
  Exact polarizability:  10.390   0.948  14.067  -0.821   0.018  13.251
 Approx polarizability:  10.635   0.790  13.137  -0.525  -0.055  12.268
                          Isotropic Fermi Contact Couplings
        Atom                 a.u.       MegaHertz       Gauss      10(-4) cm-1
     1  C(13)              0.00000       0.00000       0.00000       0.00000
     2  F(19)              0.00000       0.00000       0.00000       0.00000
     3  F(19)              0.00000       0.00000       0.00000       0.00000
     4  F(19)              0.06931     291.61366     104.05500      97.27185
     5  F(19)              0.00000       0.00000       0.00000       0.00000
 --------------------------------------------------------
       Center         ----  Spin Dipole Couplings  ----
                      3XX-RR        3YY-RR        3ZZ-RR
 --------------------------------------------------------
     1   Atom        0.000088     -0.000044     -0.000044
     2   Atom        0.000081     -0.000040     -0.000040
     3   Atom        0.000085     -0.000042     -0.000043
     4   Atom       -2.911546      2.884738      0.026808
     5   Atom        0.000075     -0.000038     -0.000037
 --------------------------------------------------------
                        XY            XZ            YZ
 --------------------------------------------------------
     1   Atom        0.000000      0.000000      0.000000
     2   Atom        0.000006      0.000007      0.000000
     3   Atom       -0.000011      0.000003      0.000000
     4   Atom        0.026645      0.018971      4.127076
     5   Atom        0.000002     -0.000008      0.000000
 --------------------------------------------------------


 ---------------------------------------------------------------------------------
              Anisotropic Spin Dipole Couplings in Principal Axis System
 ---------------------------------------------------------------------------------

       Atom             a.u.   MegaHertz   Gauss  10(-4) cm-1        Axes

              Baa     0.0000    -0.006    -0.002    -0.002  0.0007 -0.5799  0.8147
     1 C(13)  Bbb     0.0000    -0.006    -0.002    -0.002  0.0021  0.8147  0.5799
              Bcc     0.0001     0.012     0.004     0.004  1.0000 -0.0013 -0.0018
 
              Baa     0.0000    -0.020    -0.007    -0.007 -0.0164 -0.5798  0.8146
     2 F(19)  Bbb     0.0000    -0.020    -0.007    -0.007 -0.0770  0.8130  0.5772
              Bcc     0.0001     0.041     0.015     0.014  0.9969  0.0533  0.0580
 
              Baa     0.0000    -0.022    -0.008    -0.007 -0.0661 -0.5786  0.8129
     3 F(19)  Bbb     0.0000    -0.021    -0.008    -0.007  0.0543  0.8114  0.5820
              Bcc     0.0001     0.043     0.015     0.014  0.9963 -0.0826  0.0222
 
              Baa    -2.9117 -1462.323  -521.793  -487.779  0.0018 -0.5800  0.8146
     4 F(19)  Bbb    -2.9117 -1462.314  -521.790  -487.776  1.0000 -0.0020 -0.0036
              Bcc     5.8234  2924.638  1043.583   975.554  0.0037  0.8146  0.5800
 
              Baa     0.0000    -0.019    -0.007    -0.006  0.0663 -0.5789  0.8127
     5 F(19)  Bbb     0.0000    -0.019    -0.007    -0.006  0.0234  0.8152  0.5787
              Bcc     0.0001     0.038     0.014     0.013  0.9975  0.0193 -0.0676
 

 ---------------------------------------------------------------------------------

 No NMR shielding tensors so no spin-rotation constants.
 Leave Link  601 at Sat Mar  4 13:40:28 2017, MaxMem=   655360000 cpu:         1.3
 (Enter /mnt/software/gaussian/g09/l701.exe)
 Compute integral second derivatives.
 ... and contract with generalized density number  0.
 Entering OneElI...
 Calculate overlap and kinetic energy integrals
    NBasis =  75  MinDer = 2  MaxDer = 2
 Requested accuracy = 0.1000D-12
 PrsmSu:  NPrtUS=   6 ThrOK=T IAlg=1 NPAlg=1 LenDen=           0.
 Prism:   IPart=     0 DynPar=F LinDyn=F Incr=           1.
 PRISM was handed   109212905 working-precision words and   146 shell-pairs
 PRISM was handed   109212905 working-precision words and   146 shell-pairs
 PRISM was handed   109212905 working-precision words and   146 shell-pairs
 PRISM was handed   109212905 working-precision words and   146 shell-pairs
 PRISM was handed   109212905 working-precision words and   146 shell-pairs
 PRISM was handed   109212905 working-precision words and   146 shell-pairs
 IPart=  5 NShTot=          15 NBatch=          10 AvBLen=         1.5
 IPart=  1 NShTot=          29 NBatch=          15 AvBLen=         1.9
 IPart=  4 NShTot=          23 NBatch=          11 AvBLen=         2.1
 IPart=  0 NShTot=          29 NBatch=          15 AvBLen=         1.9
 IPart=  3 NShTot=          23 NBatch=          11 AvBLen=         2.1
 IPart=  2 NShTot=          27 NBatch=          15 AvBLen=         1.8
 PrSmSu:  NxtVal=              7.
 Entering OneElI...
 Calculate potential energy integrals
    NBasis =  75  MinDer = 2  MaxDer = 2
 Requested accuracy = 0.1000D-12
 PrsmSu:  NPrtUS=   6 ThrOK=T IAlg=1 NPAlg=1 LenDen=           0.
 Prism:   IPart=     0 DynPar=F LinDyn=F Incr=           1.
 PRISM was handed   109214715 working-precision words and   143 shell-pairs
 PRISM was handed   109214715 working-precision words and   143 shell-pairs
 PRISM was handed   109214715 working-precision words and   143 shell-pairs
 PRISM was handed   109214715 working-precision words and   143 shell-pairs
 PRISM was handed   109214715 working-precision words and   143 shell-pairs
 PRISM was handed   109214715 working-precision words and   143 shell-pairs
 IPart=  5 NShTot=          70 NBatch=          14 AvBLen=         5.0
 IPart=  1 NShTot=         140 NBatch=          28 AvBLen=         5.0
 IPart=  2 NShTot=         130 NBatch=          26 AvBLen=         5.0
 IPart=  0 NShTot=         145 NBatch=          29 AvBLen=         5.0
 IPart=  4 NShTot=         115 NBatch=          23 AvBLen=         5.0
 IPart=  3 NShTot=         115 NBatch=          23 AvBLen=         5.0
 PrSmSu:  NxtVal=              7.
 Polarizability after L701:
                1             2             3 
      1  0.103902D+02
      2  0.947828D+00  0.140666D+02
      3 -0.820652D+00  0.179314D-01  0.132512D+02
 Dipole Derivatives after L701:
                 1             2             3             4             5 
      1   0.129288D+01  0.176950D+00 -0.215637D+00 -0.809035D-01  0.232948D-02
      2   0.166720D+00  0.219594D+01  0.375376D-01 -0.150315D+00 -0.383686D+00
      3  -0.211590D+00  0.404860D-01  0.215166D+01 -0.107382D+00 -0.190183D+00
                 6             7             8             9            10 
      1   0.591535D-01 -0.518163D-01 -0.140095D+00  0.695551D-01 -0.144414D-03
      2  -0.209642D+00  0.672462D-01 -0.582640D+00  0.122125D+00  0.000000D+00
      3  -0.437272D+00  0.103770D-01  0.705149D-01 -0.224137D+00  0.000000D+00
                11            12            13            14            15 
      1   0.000000D+00  0.000000D+00 -0.160011D+00 -0.391841D-01  0.869276D-01
      2   0.763242D-04  0.324277D-05 -0.836506D-01 -0.229695D+00  0.499767D-01
      3   0.144707D-05  0.728299D-04  0.308594D+00  0.791803D-01 -0.490320D+00
 Hessian after L701:
                1             2             3             4             5 
      1  0.269265D+02
      2 -0.372311D+01  0.124748D+02
      3  0.314442D+01  0.202739D+00  0.155547D+02
      4 -0.974255D+01  0.283888D+01  0.295643D+01  0.113403D+02
      5  0.329930D+01 -0.497955D+01  0.652773D+01 -0.320278D+01  0.405793D+01
      6  0.341403D+01  0.643513D+01 -0.356470D+01 -0.281742D+01 -0.775275D+01
      7 -0.113048D+02 -0.122504D+01  0.291182D+00 -0.806073D+00  0.204570D+00
      8 -0.185779D+01  0.224980D+01 -0.411941D+01  0.498047D+00  0.162938D+01
      9  0.469729D+00 -0.397689D+01 -0.976070D+01  0.428672D-01  0.505851D+00
     10 -0.151786D-02  0.587950D-03 -0.138838D-02  0.835765D-02  0.320055D-02
     11 -0.724799D-04 -0.219612D-02 -0.233401D-05  0.585145D-03 -0.321621D-02
     12  0.760458D-04 -0.575948D-05 -0.213848D-02  0.616456D-03  0.119663D-03
     13 -0.587757D+01  0.210869D+01 -0.639064D+01 -0.800041D+00 -0.304288D+00
     14  0.228167D+01 -0.974287D+01 -0.261107D+01 -0.134727D+00 -0.704542D+00
     15 -0.702825D+01 -0.266098D+01 -0.222715D+01 -0.182485D+00  0.719044D+00
                6             7             8             9            10 
      6  0.290108D+01
      7  0.153210D-01  0.127581D+02
      8  0.891133D+00  0.567330D+00 -0.437412D+01
      9 -0.735524D+00  0.652020D-01  0.459882D+01  0.102305D+02
     10  0.331658D-02  0.771349D-02 -0.531884D-02  0.168195D-02 -0.234697D-01
     11  0.114094D-03 -0.882475D-03 -0.322398D-02 -0.826144D-04  0.161424D-03
     12 -0.319642D-02  0.228453D-03 -0.568929D-04 -0.348781D-02 -0.171725D-03
     13 -0.615239D+00 -0.654904D+00  0.797727D+00 -0.579480D+00  0.891643D-02
     14  0.426368D+00  0.454026D+00  0.498163D+00 -0.112770D+01  0.136892D-02
     15  0.140235D+01 -0.371933D+00 -0.137049D+01  0.269233D+00 -0.343843D-02
               11            12            13            14            15 
     11  0.117243D-01
     12  0.156647D-05  0.117454D-01
     13  0.208385D-03 -0.749231D-03  0.732360D+01
     14 -0.308801D-02 -0.585775D-04 -0.260234D+01  0.995233D+01
     15 -0.307124D-04 -0.292265D-02  0.758611D+01  0.331246D+01  0.558495D+00
 Leave Link  701 at Sat Mar  4 13:40:28 2017, MaxMem=   655360000 cpu:         1.1
 (Enter /mnt/software/gaussian/g09/l702.exe)
 L702 exits ... SP integral derivatives will be done elsewhere.
 Leave Link  702 at Sat Mar  4 13:40:28 2017, MaxMem=   655360000 cpu:         0.1
 (Enter /mnt/software/gaussian/g09/l703.exe)
 Compute integral second derivatives, UseDBF=F ICtDFT=           0.
 Integral derivatives from FoFJK, PRISM(SPDF).
 ICntrl=    100127.
 Calling FoFJK, ICntrl=    100127 FMM=F ISym2X=0 I1Cent= 0 IOpClX= 1 NMat=1 NMatS=1 NMatT=0.
 FoFJK:  IHMeth= 1 ICntrl=  100127 DoSepK=F KAlg= 0 I1Cent=   0 FoldK=F
 IRaf=         0 NMat=   1 IRICut=       1 DoRegI=T DoRafI=F ISym2E= 0.
 FoFCou: FMM=F IPFlag=           0 FMFlag=      100000 FMFlg1=         800
[...]
     X     X                                                                                                                         
     X     X                                                                                                                         
     X     X                                                                                                                         
     X     X                                                                                                                         
     X     X                                                                                                                         
     X     X                                                                                                                         
     X     X                                                                                                                         
     X     X                                                                                                                         
     X     X                                                                                                                         
     X     X                                                                                                                         
     X     X                                                                                                                         
     X     X                                                                                                                         
     X     X                                                                                                                         
     X     X                                                                                                                         
 
 
                                                          Distorted Ethanol
                                                            Raman Spectrum
 
     1     1                                                                                                                         
     4     3                              9            8                  6    5                                2   1                
     0     4                              9            6                  5    8                                2   8                
     5     9                              9            0                  1    7                                9   5                
 
     X     X                              X            X                  X    X                                X   X                
     X     X                              X            X                  X    X                                                     
     X     X                              X                               X    X                                                     
     X     X                              X                                                                                          
                                          X                                                                                          
                                          X                                                                                          
                                          X                                                                                          
                                          X                                                                                          
                                          X                                                                                          
                                          X                                                                                          
                                          X                                                                                          
                                          X                                                                                          
                                          X                                                                                          
                                          X                                                                                          
                                          X                                                                                          
                                          X                                                                                          
                                          X                                                                                          
                                          X                                                                                          
                                          X                                                                                          
                                          X                                                                                          
 
 Forces in standard orientation:
 -------------------------------------------------------------------
 Center     Atomic                   Forces (Hartrees/Bohr)
 Number     Number              X              Y              Z
 -------------------------------------------------------------------
      1        6           0.231097936   -0.005317396    0.046212755
      2        9          -0.080464480   -0.036844971   -0.035295264
      3        9          -0.057463506    0.069352102   -0.033790927
      4        9           0.000001712   -0.000000003   -0.000000007
      5        9          -0.093171662   -0.027189732    0.022873443
 -------------------------------------------------------------------
 ***** Axes restored to original set *****
 Rotating derivatives, DoTrsp=F IDiff=-2 LEDeriv=    772 LFDPrp=       0 LDFDPr=       0.
 -------------------------------------------------------------------
 Center     Atomic                   Forces (Hartrees/Bohr)
 Number     Number              X              Y              Z
 -------------------------------------------------------------------
      1        6           0.104691988    0.204919460   -0.051163974
      2        9          -0.074882697   -0.053143393    0.025420497
      3        9           0.003665991   -0.086543399   -0.041837732
      4        9           0.000000563    0.000001477   -0.000000656
      5        9          -0.033475846   -0.065234145    0.067581866
 -------------------------------------------------------------------
 Cartesian Forces:  Max     0.204919460 RMS     0.074764082
 Z-matrix is all fixed cartesians, so copy forces.
 Force constants in Cartesian coordinates: 
                1             2             3             4             5 
      1  0.625587D+00
      2 -0.117196D+00  0.379671D+00
      3 -0.839204D-02  0.507692D-01  0.666817D+00
      4 -0.333681D+00  0.438597D-01 -0.258589D-01  0.451339D+00
      5  0.110123D-01 -0.100339D+00 -0.408903D-02 -0.818821D-01  0.728739D-01
      6 -0.170421D-01 -0.599122D-03 -0.118731D+00  0.561191D-01 -0.621736D-02
      7 -0.165712D+00  0.571236D-01  0.730401D-01 -0.559980D-01  0.407355D-01
      8  0.768938D-01 -0.163892D+00 -0.108519D+00  0.223400D-01  0.597001D-02
      9  0.809750D-01 -0.848283D-01 -0.253129D+00  0.353180D-01 -0.196472D-01
     10  0.000000D+00  0.000000D+00  0.000000D+00  0.000000D+00  0.000000D+00
     11  0.000000D+00  0.000000D+00  0.000000D+00  0.000000D+00  0.000000D+00
     12  0.000000D+00  0.000000D+00  0.000000D+00  0.000000D+00  0.000000D+00
     13 -0.126194D+00  0.162122D-01 -0.387891D-01 -0.616600D-01  0.301344D-01
     14  0.292893D-01 -0.115440D+00  0.618389D-01  0.156824D-01  0.214953D-01
     15 -0.555408D-01  0.346584D-01 -0.294957D+00 -0.655783D-01  0.299536D-01
                6             7             8             9            10 
      6  0.141784D+00
      7  0.441673D-01  0.196273D+00
      8 -0.162132D-01 -0.989805D-01  0.141815D+00
      9  0.971356D-02 -0.132407D+00  0.129460D+00  0.320274D+00
     10  0.000000D+00  0.000000D+00  0.000000D+00  0.000000D+00  0.000000D+00
     11  0.000000D+00  0.000000D+00  0.000000D+00  0.000000D+00  0.000000D+00
     12  0.000000D+00  0.000000D+00  0.000000D+00  0.000000D+00  0.000000D+00
     13 -0.832444D-01  0.254366D-01 -0.253316D-03  0.161145D-01  0.000000D+00
     14  0.230297D-01  0.112154D-02  0.161074D-01 -0.249846D-01  0.000000D+00
     15 -0.327668D-01  0.152000D-01 -0.472801D-02 -0.768589D-01  0.000000D+00
               11            12            13            14            15 
     11  0.000000D+00
     12  0.000000D+00  0.000000D+00
     13  0.000000D+00  0.000000D+00  0.162417D+00
     14  0.000000D+00  0.000000D+00 -0.460932D-01  0.778378D-01
     15  0.000000D+00  0.000000D+00  0.105919D+00 -0.598840D-01  0.404582D+00
 Final forces over variables, Energy=-4.35085900D+02:
  1.04691988D-01-7.48826969D-02 3.66599146D-03 5.63480444D-07
 -3.34758464D-02 2.04919460D-01-5.31433927D-02-8.65433992D-02
  1.47721589D-06-6.52341451D-02-5.11639744D-02 2.54204969D-02
 -4.18377324D-02-6.55918721D-07 6.75818658D-02
 Leave Link  716 at Sat Mar  4 13:40:29 2017, MaxMem=   655360000 cpu:         0.2
 (Enter /mnt/software/gaussian/g09/l103.exe)

 GradGradGradGradGradGradGradGradGradGradGradGradGradGradGradGradGradGrad
 Berny optimization.
 Search for a local minimum.
 Step number   1 out of a maximum of    2
 All quantities printed in internal units (Hartrees-Bohrs-Radians)
 Second derivative matrix not updated -- analytic derivatives used.
 The second derivative matrix:
                          X1        Y1        Z1        X2        Y2
           X1           0.62559
           Y1          -0.11720   0.37967
           Z1          -0.00839   0.05077   0.66682
           X2          -0.33368   0.04386  -0.02586   0.45134
           Y2           0.01101  -0.10034  -0.00409  -0.08188   0.07287
           Z2          -0.01704  -0.00060  -0.11873   0.05612  -0.00622
           X3          -0.16571   0.05712   0.07304  -0.05600   0.04074
           Y3           0.07689  -0.16389  -0.10852   0.02234   0.00597
           Z3           0.08097  -0.08483  -0.25313   0.03532  -0.01965
           X4           0.00000   0.00000   0.00000   0.00000   0.00000
           Y4           0.00000   0.00000   0.00000   0.00000   0.00000
           Z4           0.00000   0.00000   0.00000   0.00000   0.00000
           X5          -0.12619   0.01621  -0.03879  -0.06166   0.03013
           Y5           0.02929  -0.11544   0.06184   0.01568   0.02150
           Z5          -0.05554   0.03466  -0.29496  -0.06558   0.02995
                          Z2        X3        Y3        Z3        X4
           Z2           0.14178
           X3           0.04417   0.19627
           Y3          -0.01621  -0.09898   0.14181
           Z3           0.00971  -0.13241   0.12946   0.32027
           X4           0.00000   0.00000   0.00000   0.00000   0.00000
           Y4           0.00000   0.00000   0.00000   0.00000   0.00000
           Z4           0.00000   0.00000   0.00000   0.00000   0.00000
           X5          -0.08324   0.02544  -0.00025   0.01611   0.00000
           Y5           0.02303   0.00112   0.01611  -0.02498   0.00000
           Z5          -0.03277   0.01520  -0.00473  -0.07686   0.00000
                          Y4        Z4        X5        Y5        Z5
           Y4           0.00000
           Z4           0.00000   0.00000
           X5           0.00000   0.00000   0.16242
           Y5           0.00000   0.00000  -0.04609   0.07784
           Z5           0.00000   0.00000   0.10592  -0.05988   0.40458
 ITU=  0
     Eigenvalues ---    0.00000   0.02442   0.03759   0.24119   0.29506
     Eigenvalues ---    0.40615   0.64957   0.93215   1.01509
 Eigenvalue     1 is  -3.13D-07 should be greater than     0.000000 Eigenvector:
                          Y4        Z4        X4        Y1        Y5
   1                    0.76507  -0.33489   0.29508  -0.20046  -0.20046
                          Y3        Y2        Z1        Z5        Z3
   1                   -0.20046  -0.20046   0.08775   0.08775   0.08775
 Quadratic step=5.512D+00 exceeds max=3.000D-01 adjusted using Lamda=-4.870D-01.
 Angle between NR and scaled steps=  83.46 degrees.
 Angle between quadratic step and forces=   7.86 degrees.
 Linear search not attempted -- first point.
 TrRot= -0.003931 -0.008243  0.002247  1.188938  0.000073 -1.188899
 Variable       Old X    -DE/DX   Delta X   Delta X   Delta X     New X
                                 (Linear)    (Quad)   (Total)
    X1        0.35967   0.10469   0.00000   0.11257   0.10820   0.46787
    Y1        9.31087   0.20492   0.00000   0.22686   0.21846   9.52933
    Z1       -2.54561  -0.05116   0.00000  -0.05329  -0.05170  -2.59731
    X2        2.80007  -0.07488   0.00000  -0.05118  -0.05554   2.74454
    Y2        9.18400  -0.05314   0.00000  -0.05528  -0.06358   9.12042
    Z2       -2.40634   0.02542   0.00000   0.03374   0.03529  -2.37105
    X3       -0.66490   0.00367   0.00000   0.00078  -0.00358  -0.66848
    Y3       10.64100  -0.08654   0.00000  -0.08155  -0.08987  10.55113
    Z3       -0.79106  -0.04184   0.00000  -0.03911  -0.03757  -0.82863
    X4       -9.01496   0.00000   0.00000   0.00318   0.00007  -9.01490
    Y4      -15.12870   0.00000   0.00000   0.00838   0.00035 -15.12835
    Z4        8.26848   0.00000   0.00000  -0.00361  -0.00009   8.26839
    X5       -0.11304  -0.03348   0.00000  -0.04470  -0.04915  -0.16219
    Y5       10.04457  -0.06523   0.00000  -0.05678  -0.06536   9.97921
    Z5       -4.84434   0.06758   0.00000   0.05249   0.05406  -4.79027
         Item               Value     Threshold  Converged?
 Maximum Force            0.204919     0.000450     NO 
 RMS     Force            0.074764     0.000300     NO 
 Maximum Displacement     0.218462     0.001800     NO 
 RMS     Displacement     0.077283     0.001200     NO 
 Predicted change in Energy=-6.496474D-02
 GradGradGradGradGradGradGradGradGradGradGradGradGradGradGradGradGradGrad

 Leave Link  103 at Sat Mar  4 13:40:29 2017, MaxMem=   655360000 cpu:         0.1
 (Enter /mnt/software/gaussian/g09/l9999.exe)

 Test job not archived.
 1\1\GINC-TP-LINUX1\Freq\UHF\6-31G(d)\C1F4(1+,2)\THOMAS\04-Mar-2017\0\\
 #P UHF/6-31g* IOP(7/33=1) IOP(7/8=11) Freq\\Distorted Ethanol\\1,2\C,0
 .190327,4.927098,-1.347077\F,1.481734,4.859965,-1.273379\F,-0.35185,5.
 630976,-0.418612\F,-4.770514,-8.005763,4.375489\F,-0.05982,5.315358,-2
 .563514\\Version=ES64L-G09RevD.01\State=2-A\HF=-435.0859004\S2=0.75267
 3\S2-1=0.\S2A=0.750003\RMSD=6.682e-10\RMSF=7.476e-02\ZeroPoint=0.01427
 29\Thermal=0.0186243\Dipole=1.6998814,4.6701165,-2.1571534\DipoleDeriv
 =2.0894156,-0.3299483,0.0262361,-0.3363173,1.3492536,0.1029176,0.02231
 49,0.0943281,2.2018062,-0.5954871,0.206413,-0.0915052,-0.0066056,-0.08
 44577,-0.0206576,-0.0149004,-0.007702,-0.2219161,-0.2725861,0.0794921,
 0.1054805,0.2182873,-0.1566216,-0.2425656,0.1664595,-0.0807832,-0.4293
 854,0.0000527,-0.0000642,0.0000257,-0.0000633,-0.0000881,0.0000722,0.0
 000271,0.0000715,0.0000401,-0.2213951,0.0441074,-0.0402371,0.124699,-0
 .1080862,0.1602334,-0.1739012,-0.0059143,-0.5505448\Polar=13.3488882,-
 1.212845,10.4164839,-0.3403303,0.3859495,13.9426566\PolarDeriv=-3.4859
 917,-1.7180015,-0.1430927,0.1416836,0.1501247,-0.2619369,-1.7004207,-0
 .2247253,-4.4773577,0.152117,0.048736,-2.5472509,0.0751172,0.1333409,-
 0.0610077,-0.3322559,-2.547507,1.5373772,6.4921086,-0.241219,0.6824675
 ,0.1352847,0.0631481,1.2399661,-0.1931655,1.5750992,0.1986343,0.017876
 8,0.015759,0.2503416,0.1198533,0.0546888,-0.0727601,1.9256617,-0.22178
 45,0.3060951,-2.1057861,1.3355304,-0.5192995,1.5254934,-0.5235223,-0.6
 13509,1.1548928,-1.0088669,2.77687,-0.3254476,1.5921254,1.3877333,0.78
 11979,-0.4876994,0.9607396,-1.0949455,1.6531741,4.2602896,0.0007267,0.
 0008854,-0.000765,-0.0004728,0.0000811,0.0000165,-0.0003719,-0.0002569
 ,0.0004149,0.0001262,-0.0002079,-0.0000599,-0.0000087,-0.0000959,-0.00
 00964,0.0000011,-0.0000397,0.0001391,-0.9010576,0.6228046,-0.0193103,-
 1.8019889,0.3101684,-0.3645366,0.7390653,-0.3412501,1.5014384,0.155327
 6,-1.6564125,0.9092359,-0.9761597,0.2997656,-0.8268754,-0.4984614,1.11
 61572,-6.1039011\HyperPolar=-16.4529854,-5.103574,1.876054,-11.2514222
 ,-1.3862495,1.0911155,-1.4527272,1.5942658,-12.5141564,7.3795794\PG=C0
 1 [X(C1F4)]\NImag=1\\0.62558672,-0.11719565,0.37967135,-0.00839204,0.0
 5076919,0.66681663,-0.33368103,0.04385972,-0.02585887,0.45133888,0.011
 01229,-0.10033915,-0.00408903,-0.08188212,0.07287388,-0.01704209,-0.00
 059912,-0.11873119,0.05611914,-0.00621736,0.14178445,-0.16571158,0.057
 12356,0.07304013,-0.05599797,0.04073546,0.04416732,0.19627291,0.076893
 81,-0.16389193,-0.10851886,0.02234004,0.00597001,-0.01621321,-0.098980
 53,0.14181453,0.08097496,-0.08482832,-0.25312868,0.03531805,-0.0196471
 9,0.00971356,-0.13240750,0.12946006,0.32027400,-0.00000025,0.00000018,
 -0.00000010,0.00000007,-0.00000001,0.,0.00000003,-0.00000001,0.,0.0000
 0010,0.00000021,0.00000018,-0.00000019,-0.00000003,-0.00000002,0.00000
 002,-0.00000004,0.00000001,0.00000004,-0.00000012,-0.00000016,-0.00000
 005,-0.00000013,-0.00000004,0.,0.00000001,0.,0.,0.00000001,0.,0.000000
 04,0.00000010,0.00000002,-0.12619386,0.01621220,-0.03878912,-0.0616599
 6,0.03013439,-0.08324437,0.02543661,-0.00025332,0.01611449,0.00000004,
 -0.00000002,0.,0.16241717,0.02928934,-0.11544044,0.06183889,0.01568239
 ,0.02149529,0.02302967,0.00112154,0.01610739,-0.02498459,-0.00000003,-
 0.00000001,0.,-0.04609324,0.07783778,-0.05554078,0.03465839,-0.2949567
 2,-0.06557832,0.02995357,-0.03276682,0.01520004,-0.00472801,-0.0768588
 8,0.00000005,0.00000002,0.00000002,0.10591900,-0.05988397,0.40458240\\
 -0.10469199,-0.20491946,0.05116397,0.07488270,0.05314339,-0.02542050,-
 0.00366599,0.08654340,0.04183773,-0.00000056,-0.00000148,0.00000066,0.
 03347585,0.06523415,-0.06758187\\\@


 THOUGH I SPEAK WITH THE TONGUES OF MEN AND OF ANGELS, 
 AND HAVE NOT LOVE,
 I AM BECOME AS SOUNDING BRASS, A TINKLING CYMBAL.
 AND THOUGH I HAVE THE GIFT OF PROPHECY,
 AND UNDERSTAND ALL MYSTERIES, AND ALL KNOWLEDGE.
 AND THOUGH I HAVE ALL FAITH, SO THAT I COULD REMOVE MOUNTAINS,
 AND HAVE NOT LOVE, I AM NOTHING.
 AND THOUGH I BESTOW ALL MY GOODS TO FEED THE POOR,
 AND THOUGH I GIVE MY BODY TO BE BURNED,
 AND HAVE NOT LOVE IT PROFITETH ME NOTHING.
 LOVE SUFFERETH LONG, AND IS KIND,
 LOVE ENVIETH NOT,
 LOVE VAUNTETH NOT ITSELF, IS NOT PUFFED UP,
 DOTH NOT BEHAVE ITSELF UNSEEMLY, SEEKETH NOT HER OWN,
 IS NOT EASILY PROVOKED, THINKETH NO EVIL,
 REJOICETH NOT IN INIQUITY, BUT REJOICETH IN THE TRUTH,
 BEARETH ALL THINGS, BELIEVETH ALL THINGS,
 HOPETH ALL THINGS, ENDURETH ALL THINGS.
 LOVE NEVER FAILETH, BUT WHETHER THERE BE PROPHECIES, THEY SHALL FAIL, 
 WHETHER THERE BE TONGUES, THEY SHALL CEASE,
 WHETHER THERE BE KNOWLEDGE, IT SHALL VANISH AWAY.
 FOR WE KNOW IN PART, AND WE PROPHESY IN PART.
 BUT WHEN THAT WHICH IS PERFECT IS COME, THEN THAT WHICH IS IN PART 
 SHALL BE DONE AWAY. 
 WHEN I WAS A CHILD, I SPAKE AS A CHILD, I UNDERSTOOD AS A CHILD, 
 I THOUGHT AS A CHILD.
 BUT WHEN I BECAME A MAN, I PUT AWAY CHILDISH THINGS.
 FOR NOW WE SEE THROUGH A GLASS, DARKLY, BUT THEN FACE TO FACE.
 NOW I KNOW IN PART. BUT THEN SHALL I KNOW EVEN AS ALSO I AM KNOWN.
 AND NOW ABIDETH FAITH, HOPE AND LOVE, THESE THREE.
 BUT THE GREATEST OF THESE IS LOVE.

                     I CORINTHIANS 13
 Job cpu time:       0 days  0 hours  0 minutes 25.1 seconds.
 File lengths (MBytes):  RWF=     12 Int=      0 D2E=      0 Chk=      2 Scr=      1
 Normal termination of Gaussian 09 at Sat Mar  4 13:40:29 2017.
