 Entering Gaussian System, Link 0=g09
 Input=/home/thomas/cf4/DD-vMCG/dd_data/gwp11_V1_dd_data.com
 Output=/home/thomas/cf4/DD-vMCG/dd_data/gwp11_V1_dd_data.log
 Initial command:
 /mnt/software/gaussian/g09/l1.exe "/scratch/Gau-550.inp" -scrdir="/scratch/"
 Entering Link 1 = /mnt/software/gaussian/g09/l1.exe PID=       553.
  
 Copyright (c) 1988,1990,1992,1993,1995,1998,2003,2009,2013,
            Gaussian, Inc.  All Rights Reserved.
  
 This is part of the Gaussian(R) 09 program.  It is based on
 the Gaussian(R) 03 system (copyright 2003, Gaussian, Inc.),
 the Gaussian(R) 98 system (copyright 1998, Gaussian, Inc.),
 the Gaussian(R) 94 system (copyright 1995, Gaussian, Inc.),
 the Gaussian 92(TM) system (copyright 1992, Gaussian, Inc.),
 the Gaussian 90(TM) system (copyright 1990, Gaussian, Inc.),
 the Gaussian 88(TM) system (copyright 1988, Gaussian, Inc.),
 the Gaussian 86(TM) system (copyright 1986, Carnegie Mellon
 University), and the Gaussian 82(TM) system (copyright 1983,
 Carnegie Mellon University). Gaussian is a federally registered
 trademark of Gaussian, Inc.
  
 This software contains proprietary and confidential information,
 including trade secrets, belonging to Gaussian, Inc.
  
 This software is provided under written license and may be
 used, copied, transmitted, or stored only in accord with that
 written license.
  
 The following legend is applicable only to US Government
 contracts under FAR:
  
                    RESTRICTED RIGHTS LEGEND
  
 Use, reproduction and disclosure by the US Government is
 subject to restrictions as set forth in subparagraphs (a)
 and (c) of the Commercial Computer Software - Restricted
 Rights clause in FAR 52.227-19.
  
 Gaussian, Inc.
 340 Quinnipiac St., Bldg. 40, Wallingford CT 06492
  
  
 ---------------------------------------------------------------
 Warning -- This program may not be used in any manner that
 competes with the business of Gaussian, Inc. or will provide
 assistance to any competitor of Gaussian, Inc.  The licensee
 of this program is prohibited from giving any competitor of
 Gaussian, Inc. access to this program.  By using this program,
 the user acknowledges that Gaussian, Inc. is engaged in the
 business of creating and licensing software in the field of
 computational chemistry and represents and warrants to the
 licensee that it is not a competitor of Gaussian, Inc. and that
 it will not use this program in any manner prohibited above.
 ---------------------------------------------------------------
  

 Cite this work as:
 Gaussian 09, Revision D.01,
 M. J. Frisch, G. W. Trucks, H. B. Schlegel, G. E. Scuseria, 
 M. A. Robb, J. R. Cheeseman, G. Scalmani, V. Barone, B. Mennucci, 
 G. A. Petersson, H. Nakatsuji, M. Caricato, X. Li, H. P. Hratchian, 
 A. F. Izmaylov, J. Bloino, G. Zheng, J. L. Sonnenberg, M. Hada, 
 M. Ehara, K. Toyota, R. Fukuda, J. Hasegawa, M. Ishida, T. Nakajima, 
 Y. Honda, O. Kitao, H. Nakai, T. Vreven, J. A. Montgomery, Jr., 
 J. E. Peralta, F. Ogliaro, M. Bearpark, J. J. Heyd, E. Brothers, 
 K. N. Kudin, V. N. Staroverov, T. Keith, R. Kobayashi, J. Normand, 
 K. Raghavachari, A. Rendell, J. C. Burant, S. S. Iyengar, J. Tomasi, 
 M. Cossi, N. Rega, J. M. Millam, M. Klene, J. E. Knox, J. B. Cross, 
 V. Bakken, C. Adamo, J. Jaramillo, R. Gomperts, R. E. Stratmann, 
 O. Yazyev, A. J. Austin, R. Cammi, C. Pomelli, J. W. Ochterski, 
 R. L. Martin, K. Morokuma, V. G. Zakrzewski, G. A. Voth, 
 P. Salvador, J. J. Dannenberg, S. Dapprich, A. D. Daniels, 
 O. Farkas, J. B. Foresman, J. V. Ortiz, J. Cioslowski, 
 and D. J. Fox, Gaussian, Inc., Wallingford CT, 2013.
 
 ******************************************
 Gaussian 09:  ES64L-G09RevD.01 24-Apr-2013
                 4-Mar-2017 
 ******************************************
 %mem=5000MB
 %Nprocshared=6
 Will use up to    6 processors via shared memory.
 %chk=gwp11_V1_dd_data.chk
 ------------------------------------------
 #P UHF/6-31g* IOP(7/33=1) IOP(7/8=11) Freq
 ------------------------------------------
 1/10=4,30=1,38=1/1,3;
 2/12=2,17=6,18=5,40=1/2;
 3/5=1,6=6,7=1,11=2,16=1,25=1,30=1,71=2,116=2,140=1/1,2,3;
 4//1;
 5/5=2,38=5,98=1/2;
 8/6=4,10=90,11=11/1;
 10/13=10,15=4/2;
 11/6=3,8=1,9=11,15=111,16=1/1,2,10;
 10/6=1/2;
 6/7=2,8=2,9=2,10=2,18=1,28=1/1;
 7/8=11,10=1,25=1,33=1/1,2,3,16;
 1/10=4,30=1/3;
 99//99;
 Leave Link    1 at Sat Mar  4 13:45:02 2017, MaxMem=   655360000 cpu:         0.2
 (Enter /mnt/software/gaussian/g09/l101.exe)
 -----------------
 Distorted Ethanol
 -----------------
 Symbolic Z-matrix:
 Charge =  1 Multiplicity = 2
 6                     1.35951   4.7712   -1.57014 
 9                     1.86179   5.80076  -1.05418 
 9                     1.00346   3.87897  -0.61227 
 9                    -7.24892  -6.78043   5.27788 
 9                     0.45432   4.90042  -2.44163 
 
 NAtoms=      5 NQM=        5 NQMF=       0 NMMI=      0 NMMIF=      0
                NMic=       0 NMicF=      0.
                    Isotopes and Nuclear Properties:
 (Nuclear quadrupole moments (NQMom) in fm**2, nuclear magnetic moments (NMagM)
  in nuclear magnetons)

  Atom         1           2           3           4           5
 IAtWgt=          12          19          19          19          19
 AtmWgt=  12.0000000  18.9984033  18.9984033  18.9984033  18.9984033
 NucSpn=           0           1           1           1           1
 AtZEff=   0.0000000   0.0000000   0.0000000   0.0000000   0.0000000
 NQMom=    0.0000000   0.0000000   0.0000000   0.0000000   0.0000000
 NMagM=    0.0000000   2.6288670   2.6288670   2.6288670   2.6288670
 AtZNuc=   6.0000000   9.0000000   9.0000000   9.0000000   9.0000000
 Leave Link  101 at Sat Mar  4 13:45:03 2017, MaxMem=   655360000 cpu:         0.5
 (Enter /mnt/software/gaussian/g09/l103.exe)

 GradGradGradGradGradGradGradGradGradGradGradGradGradGradGradGradGradGrad
 Berny optimization.
 Initialization pass.
 Trust Radius=3.00D-01 FncErr=1.00D-07 GrdErr=1.00D-07
 Number of steps in this run=      2 maximum allowed number of steps=      2.
 GradGradGradGradGradGradGradGradGradGradGradGradGradGradGradGradGradGrad

 Leave Link  103 at Sat Mar  4 13:45:03 2017, MaxMem=   655360000 cpu:         0.1
 (Enter /mnt/software/gaussian/g09/l202.exe)
                          Input orientation:                          
 ---------------------------------------------------------------------
 Center     Atomic      Atomic             Coordinates (Angstroms)
 Number     Number       Type             X           Y           Z
 ---------------------------------------------------------------------
      1          6           0        1.359507    4.771204   -1.570143
      2          9           0        1.861790    5.800757   -1.054181
      3          9           0        1.003461    3.878974   -0.612268
      4          9           0       -7.248916   -6.780434    5.277883
      5          9           0        0.454322    4.900417   -2.441630
 ---------------------------------------------------------------------
                    Distance matrix (angstroms):
                    1          2          3          4          5
     1  C    0.000000
     2  F    1.256377   0.000000
     3  F    1.356602   2.150643   0.000000
     4  F   15.951199  16.774575  14.711172   0.000000
     5  F    1.263149   2.171772   2.165979  15.980395   0.000000
 Stoichiometry    CF4(1+,2)
 Framework group  C1[X(CF4)]
 Deg. of freedom     9
 Full point group                 C1      NOp   1
 Largest Abelian subgroup         C1      NOp   1
 Largest concise Abelian subgroup C1      NOp   1
                         Standard orientation:                         
 ---------------------------------------------------------------------
 Center     Atomic      Atomic             Coordinates (Angstroms)
 Number     Number       Type             X           Y           Z
 ---------------------------------------------------------------------
      1          6           0        3.515899    0.025006   -0.252514
      2          9           0        4.322651   -0.754727    0.312864
      3          9           0        2.266753   -0.503960   -0.266502
      4          9           0      -12.432660    0.000003    0.036611
      5          9           0        3.499323    1.242013    0.085370
 ---------------------------------------------------------------------
 Rotational constants (GHZ):     10.2930888      0.1339013      0.1324685
 Leave Link  202 at Sat Mar  4 13:45:03 2017, MaxMem=   655360000 cpu:         0.0
 (Enter /mnt/software/gaussian/g09/l301.exe)
 Standard basis: 6-31G(d) (6D, 7F)
 Ernie: Thresh=  0.10000D-02 Tol=  0.10000D-05 Strict=F.
 There are    75 symmetry adapted cartesian basis functions of A   symmetry.
 There are    75 symmetry adapted basis functions of A   symmetry.
    75 basis functions,   140 primitive gaussians,    75 cartesian basis functions
    21 alpha electrons       20 beta electrons
       nuclear repulsion energy       135.8300158326 Hartrees.
 IExCor=    0 DFT=F Ex=HF Corr=None ExCW=0 ScaHFX=  1.000000
 ScaDFX=  1.000000  1.000000  1.000000  1.000000 ScalE2=  1.000000  1.000000
 IRadAn=      0 IRanWt=     -1 IRanGd=            0 ICorTp=0 IEmpDi=  4
 NAtoms=    5 NActive=    5 NUniq=    5 SFac= 1.00D+00 NAtFMM=   60 NAOKFM=F Big=F
 Integral buffers will be    131072 words long.
 Raffenetti 2 integral format.
 Two-electron integral symmetry is turned on.
 Leave Link  301 at Sat Mar  4 13:45:03 2017, MaxMem=   655360000 cpu:         0.3
 (Enter /mnt/software/gaussian/g09/l302.exe)
 NPDir=0 NMtPBC=     1 NCelOv=     1 NCel=       1 NClECP=     1 NCelD=      1
         NCelK=      1 NCelE2=     1 NClLst=     1 CellRange=     0.0.
 One-electron integrals computed using PRISM.
 NBasis=    75 RedAO= T EigKep=  3.55D-03  NBF=    75
 NBsUse=    75 1.00D-06 EigRej= -1.00D+00 NBFU=    75
 Leave Link  302 at Sat Mar  4 13:45:03 2017, MaxMem=   655360000 cpu:         0.9
 (Enter /mnt/software/gaussian/g09/l303.exe)
 DipDrv:  MaxL=1.
 Leave Link  303 at Sat Mar  4 13:45:03 2017, MaxMem=   655360000 cpu:         0.1
 (Enter /mnt/software/gaussian/g09/l401.exe)
 ExpMin= 1.69D-01 ExpMax= 7.00D+03 ExpMxC= 1.05D+03 IAcc=1 IRadAn=         1 AccDes= 0.00D+00
 Harris functional with IExCor=  205 and IRadAn=       1 diagonalized for initial guess.
 HarFok:  IExCor=  205 AccDes= 0.00D+00 IRadAn=         1 IDoV= 1 UseB2=F ITyADJ=14
 ICtDFT=  3500011 ScaDFX=  1.000000  1.000000  1.000000  1.000000
 FoFCou: FMM=F IPFlag=           0 FMFlag=      100000 FMFlg1=           0
         NFxFlg=           0 DoJE=T BraDBF=F KetDBF=T FulRan=T
         wScrn=  0.000000 ICntrl=     500 IOpCl=  0 I1Cent=   200000004 NGrid=           0
         NMat0=    1 NMatS0=      1 NMatT0=    0 NMatD0=    1 NMtDS0=    0 NMtDT0=    0
 Petite list used in FoFCou.
 Harris En= -435.014160117765    
 JPrj=0 DoOrth=F DoCkMO=F.
 Initial guess <Sx>= 0.0000 <Sy>= 0.0000 <Sz>= 0.5000 <S**2>= 0.7500 S= 0.5000
 Leave Link  401 at Sat Mar  4 13:45:03 2017, MaxMem=   655360000 cpu:         0.8
 (Enter /mnt/software/gaussian/g09/l502.exe)
 UHF open shell SCF:
 Using DIIS extrapolation, IDIIS=  1040.
 Integral symmetry usage will be decided dynamically.
 Keep R1 and R2 ints in memory in canonical form, NReq=8999525.
 IVT=       36430 IEndB=       36430 NGot=   655360000 MDV=   647198221
 LenX=   647198221 LenY=   647192155
 Requested convergence on RMS density matrix=1.00D-08 within 128 cycles.
 Requested convergence on MAX density matrix=1.00D-06.
 Requested convergence on             energy=1.00D-06.
 No special actions if energy rises.
 FoFCou: FMM=F IPFlag=           0 FMFlag=           0 FMFlg1=           0
         NFxFlg=           0 DoJE=F BraDBF=F KetDBF=F FulRan=T
         wScrn=  0.000000 ICntrl=     600 IOpCl=  0 I1Cent=           0 NGrid=           0
         NMat0=    1 NMatS0=   2850 NMatT0=    0 NMatD0=    1 NMtDS0=    0 NMtDT0=    0
 Symmetry not used in FoFCou.

 Cycle   1  Pass 1  IDiag  1:
 E= -435.007014333287    
 DIIS: error= 7.71D-02 at cycle   1 NSaved=   1.
 NSaved= 1 IEnMin= 1 EnMin= -435.007014333287     IErMin= 1 ErrMin= 7.71D-02
 ErrMax= 7.71D-02  0.00D+00 EMaxC= 1.00D-01 BMatC= 1.06D+00 BMatP= 1.06D+00
 IDIUse=3 WtCom= 2.29D-01 WtEn= 7.71D-01
 Coeff-Com:  0.100D+01
 Coeff-En:   0.100D+01
 Coeff:      0.100D+01
 Gap=     0.440 Goal=   None    Shift=    0.000
 Gap=     0.788 Goal=   None    Shift=    0.000
 GapD=    0.440 DampG=2.000 DampE=0.500 DampFc=1.0000 IDamp=-1.
 RMSDP=4.10D-03 MaxDP=6.75D-02              OVMax= 6.72D-02

 Cycle   2  Pass 1  IDiag  1:
 E= -435.083289585049     Delta-E=       -0.076275251763 Rises=F Damp=F
 DIIS: error= 1.70D-02 at cycle   2 NSaved=   2.
 NSaved= 2 IEnMin= 2 EnMin= -435.083289585049     IErMin= 2 ErrMin= 1.70D-02
 ErrMax= 1.70D-02  0.00D+00 EMaxC= 1.00D-01 BMatC= 9.63D-02 BMatP= 1.06D+00
 IDIUse=3 WtCom= 8.30D-01 WtEn= 1.70D-01
 Coeff-Com:  0.132D+00 0.868D+00
 Coeff-En:   0.000D+00 0.100D+01
 Coeff:      0.110D+00 0.890D+00
 Gap=     0.429 Goal=   None    Shift=    0.000
 Gap=     0.382 Goal=   None    Shift=    0.000
 RMSDP=1.73D-03 MaxDP=3.24D-02 DE=-7.63D-02 OVMax= 5.72D-02

 Cycle   3  Pass 1  IDiag  1:
 E= -435.097252065447     Delta-E=       -0.013962480397 Rises=F Damp=F
 DIIS: error= 7.67D-03 at cycle   3 NSaved=   3.
 NSaved= 3 IEnMin= 3 EnMin= -435.097252065447     IErMin= 3 ErrMin= 7.67D-03
 ErrMax= 7.67D-03  0.00D+00 EMaxC= 1.00D-01 BMatC= 2.87D-02 BMatP= 9.63D-02
 IDIUse=3 WtCom= 9.23D-01 WtEn= 7.67D-02
 Coeff-Com: -0.223D-01 0.333D+00 0.690D+00
 Coeff-En:   0.000D+00 0.000D+00 0.100D+01
 Coeff:     -0.206D-01 0.307D+00 0.713D+00
 Gap=     0.418 Goal=   None    Shift=    0.000
 Gap=     0.370 Goal=   None    Shift=    0.000
 RMSDP=5.74D-04 MaxDP=1.37D-02 DE=-1.40D-02 OVMax= 1.33D-02

 Cycle   4  Pass 1  IDiag  1:
 E= -435.101901766463     Delta-E=       -0.004649701017 Rises=F Damp=F
 DIIS: error= 1.48D-03 at cycle   4 NSaved=   4.
 NSaved= 4 IEnMin= 4 EnMin= -435.101901766463     IErMin= 4 ErrMin= 1.48D-03
 ErrMax= 1.48D-03  0.00D+00 EMaxC= 1.00D-01 BMatC= 5.42D-04 BMatP= 2.87D-02
 IDIUse=3 WtCom= 9.85D-01 WtEn= 1.48D-02
 Coeff-Com: -0.592D-02-0.608D-01-0.362D-01 0.110D+01
 Coeff-En:   0.000D+00 0.000D+00 0.000D+00 0.100D+01
 Coeff:     -0.583D-02-0.599D-01-0.357D-01 0.110D+01
 Gap=     0.418 Goal=   None    Shift=    0.000
 Gap=     0.369 Goal=   None    Shift=    0.000
 RMSDP=1.78D-04 MaxDP=2.54D-03 DE=-4.65D-03 OVMax= 5.64D-03

 Cycle   5  Pass 1  IDiag  1:
 E= -435.102150937252     Delta-E=       -0.000249170788 Rises=F Damp=F
 DIIS: error= 5.98D-04 at cycle   5 NSaved=   5.
 NSaved= 5 IEnMin= 5 EnMin= -435.102150937252     IErMin= 5 ErrMin= 5.98D-04
 ErrMax= 5.98D-04  0.00D+00 EMaxC= 1.00D-01 BMatC= 6.32D-05 BMatP= 5.42D-04
 IDIUse=3 WtCom= 9.94D-01 WtEn= 5.98D-03
 Coeff-Com:  0.419D-02-0.302D-01-0.768D-01-0.144D+00 0.125D+01
 Coeff-En:   0.000D+00 0.000D+00 0.000D+00 0.000D+00 0.100D+01
 Coeff:      0.417D-02-0.300D-01-0.763D-01-0.143D+00 0.125D+01
 Gap=     0.421 Goal=   None    Shift=    0.000
 Gap=     0.370 Goal=   None    Shift=    0.000
 RMSDP=8.34D-05 MaxDP=1.41D-03 DE=-2.49D-04 OVMax= 2.94D-03

 Cycle   6  Pass 1  IDiag  1:
 E= -435.102190931096     Delta-E=       -0.000039993844 Rises=F Damp=F
 DIIS: error= 1.38D-04 at cycle   6 NSaved=   6.
 NSaved= 6 IEnMin= 6 EnMin= -435.102190931096     IErMin= 6 ErrMin= 1.38D-04
 ErrMax= 1.38D-04  0.00D+00 EMaxC= 1.00D-01 BMatC= 4.16D-06 BMatP= 6.32D-05
 IDIUse=3 WtCom= 9.99D-01 WtEn= 1.38D-03
 Coeff-Com:  0.144D-03 0.372D-02 0.504D-02-0.499D-01-0.731D-01 0.111D+01
 Coeff-En:   0.000D+00 0.000D+00 0.000D+00 0.000D+00 0.000D+00 0.100D+01
 Coeff:      0.143D-03 0.371D-02 0.503D-02-0.498D-01-0.730D-01 0.111D+01
 Gap=     0.421 Goal=   None    Shift=    0.000
 Gap=     0.370 Goal=   None    Shift=    0.000
 RMSDP=1.90D-05 MaxDP=4.70D-04 DE=-4.00D-05 OVMax= 6.86D-04

 Cycle   7  Pass 1  IDiag  1:
 E= -435.102193080505     Delta-E=       -0.000002149409 Rises=F Damp=F
 DIIS: error= 4.11D-05 at cycle   7 NSaved=   7.
 NSaved= 7 IEnMin= 7 EnMin= -435.102193080505     IErMin= 7 ErrMin= 4.11D-05
 ErrMax= 4.11D-05  0.00D+00 EMaxC= 1.00D-01 BMatC= 9.36D-07 BMatP= 4.16D-06
 IDIUse=1 WtCom= 1.00D+00 WtEn= 0.00D+00
 Coeff-Com: -0.557D-03 0.548D-02 0.124D-01 0.778D-02-0.199D+00 0.336D+00
 Coeff-Com:  0.838D+00
 Coeff:     -0.557D-03 0.548D-02 0.124D-01 0.778D-02-0.199D+00 0.336D+00
 Coeff:      0.838D+00
 Gap=     0.421 Goal=   None    Shift=    0.000
 Gap=     0.370 Goal=   None    Shift=    0.000
 RMSDP=6.45D-06 MaxDP=1.41D-04 DE=-2.15D-06 OVMax= 1.89D-04

 Cycle   8  Pass 1  IDiag  1:
 E= -435.102193396191     Delta-E=       -0.000000315686 Rises=F Damp=F
 DIIS: error= 1.98D-05 at cycle   8 NSaved=   8.
 NSaved= 8 IEnMin= 8 EnMin= -435.102193396191     IErMin= 8 ErrMin= 1.98D-05
 ErrMax= 1.98D-05  0.00D+00 EMaxC= 1.00D-01 BMatC= 6.61D-08 BMatP= 9.36D-07
 IDIUse=1 WtCom= 1.00D+00 WtEn= 0.00D+00
 Coeff-Com:  0.134D-03-0.176D-02-0.414D-02 0.301D-02 0.598D-01-0.190D+00
 Coeff-Com: -0.233D+00 0.137D+01
 Coeff:      0.134D-03-0.176D-02-0.414D-02 0.301D-02 0.598D-01-0.190D+00
 Coeff:     -0.233D+00 0.137D+01
 Gap=     0.421 Goal=   None    Shift=    0.000
 Gap=     0.370 Goal=   None    Shift=    0.000
 RMSDP=3.22D-06 MaxDP=6.66D-05 DE=-3.16D-07 OVMax= 1.41D-04

 Cycle   9  Pass 1  IDiag  1:
 E= -435.102193446966     Delta-E=       -0.000000050775 Rises=F Damp=F
 DIIS: error= 6.84D-06 at cycle   9 NSaved=   9.
 NSaved= 9 IEnMin= 9 EnMin= -435.102193446966     IErMin= 9 ErrMin= 6.84D-06
 ErrMax= 6.84D-06  0.00D+00 EMaxC= 1.00D-01 BMatC= 6.82D-09 BMatP= 6.61D-08
 IDIUse=1 WtCom= 1.00D+00 WtEn= 0.00D+00
 Coeff-Com:  0.653D-04-0.705D-03-0.160D-02-0.627D-03 0.255D-01-0.499D-01
 Coeff-Com: -0.109D+00 0.107D+00 0.103D+01
 Coeff:      0.653D-04-0.705D-03-0.160D-02-0.627D-03 0.255D-01-0.499D-01
 Coeff:     -0.109D+00 0.107D+00 0.103D+01
 Gap=     0.421 Goal=   None    Shift=    0.000
 Gap=     0.370 Goal=   None    Shift=    0.000
 RMSDP=9.98D-07 MaxDP=1.67D-05 DE=-5.08D-08 OVMax= 4.47D-05

 Cycle  10  Pass 1  IDiag  1:
 E= -435.102193451990     Delta-E=       -0.000000005024 Rises=F Damp=F
 DIIS: error= 2.58D-06 at cycle  10 NSaved=  10.
 NSaved=10 IEnMin=10 EnMin= -435.102193451990     IErMin=10 ErrMin= 2.58D-06
 ErrMax= 2.58D-06  0.00D+00 EMaxC= 1.00D-01 BMatC= 8.05D-10 BMatP= 6.82D-09
 IDIUse=1 WtCom= 1.00D+00 WtEn= 0.00D+00
 Coeff-Com: -0.278D-04 0.347D-03 0.826D-03-0.308D-03-0.123D-01 0.332D-01
 Coeff-Com:  0.477D-01-0.179D+00-0.249D+00 0.136D+01
 Coeff:     -0.278D-04 0.347D-03 0.826D-03-0.308D-03-0.123D-01 0.332D-01
 Coeff:      0.477D-01-0.179D+00-0.249D+00 0.136D+01
 Gap=     0.421 Goal=   None    Shift=    0.000
 Gap=     0.370 Goal=   None    Shift=    0.000
 RMSDP=4.55D-07 MaxDP=7.05D-06 DE=-5.02D-09 OVMax= 2.13D-05

 Cycle  11  Pass 1  IDiag  1:
 E= -435.102193452759     Delta-E=       -0.000000000769 Rises=F Damp=F
 DIIS: error= 5.74D-07 at cycle  11 NSaved=  11.
 NSaved=11 IEnMin=11 EnMin= -435.102193452759     IErMin=11 ErrMin= 5.74D-07
 ErrMax= 5.74D-07  0.00D+00 EMaxC= 1.00D-01 BMatC= 6.28D-11 BMatP= 8.05D-10
 IDIUse=1 WtCom= 1.00D+00 WtEn= 0.00D+00
 Coeff-Com:  0.401D-05-0.607D-04-0.146D-03 0.181D-03 0.197D-02-0.634D-02
 Coeff-Com: -0.921D-02 0.523D-01-0.256D-02-0.451D+00 0.141D+01
 Coeff:      0.401D-05-0.607D-04-0.146D-03 0.181D-03 0.197D-02-0.634D-02
 Coeff:     -0.921D-02 0.523D-01-0.256D-02-0.451D+00 0.141D+01
 Gap=     0.421 Goal=   None    Shift=    0.000
 Gap=     0.370 Goal=   None    Shift=    0.000
 RMSDP=1.27D-07 MaxDP=1.44D-06 DE=-7.69D-10 OVMax= 5.28D-06

 Cycle  12  Pass 1  IDiag  1:
 E= -435.102193452815     Delta-E=       -0.000000000057 Rises=F Damp=F
 DIIS: error= 2.20D-07 at cycle  12 NSaved=  12.
 NSaved=12 IEnMin=12 EnMin= -435.102193452815     IErMin=12 ErrMin= 2.20D-07
 ErrMax= 2.20D-07  0.00D+00 EMaxC= 1.00D-01 BMatC= 4.04D-12 BMatP= 6.28D-11
 IDIUse=1 WtCom= 1.00D+00 WtEn= 0.00D+00
 Coeff-Com:  0.108D-05-0.140D-04-0.278D-04 0.113D-04 0.430D-03-0.114D-02
 Coeff-Com: -0.184D-02 0.646D-02 0.109D-01-0.424D-01-0.985D-01 0.113D+01
 Coeff:      0.108D-05-0.140D-04-0.278D-04 0.113D-04 0.430D-03-0.114D-02
 Coeff:     -0.184D-02 0.646D-02 0.109D-01-0.424D-01-0.985D-01 0.113D+01
 Gap=     0.421 Goal=   None    Shift=    0.000
 Gap=     0.370 Goal=   None    Shift=    0.000
 RMSDP=2.15D-08 MaxDP=3.10D-07 DE=-5.65D-11 OVMax= 7.61D-07

 Cycle  13  Pass 1  IDiag  1:
 E= -435.102193452815     Delta-E=        0.000000000000 Rises=F Damp=F
 DIIS: error= 2.20D-07 at cycle  13 NSaved=  13.
 NSaved=13 IEnMin=12 EnMin= -435.102193452815     IErMin=13 ErrMin= 2.20D-07
 ErrMax= 2.20D-07  0.00D+00 EMaxC= 1.00D-01 BMatC= 1.07D-12 BMatP= 4.04D-12
 IDIUse=1 WtCom= 1.00D+00 WtEn= 0.00D+00
 Coeff-Com: -0.604D-07 0.139D-05 0.542D-05-0.123D-04-0.564D-04 0.258D-03
 Coeff-Com:  0.243D-03-0.269D-02 0.269D-02 0.292D-01-0.150D+00 0.271D+00
 Coeff-Com:  0.849D+00
 Coeff:     -0.604D-07 0.139D-05 0.542D-05-0.123D-04-0.564D-04 0.258D-03
 Coeff:      0.243D-03-0.269D-02 0.269D-02 0.292D-01-0.150D+00 0.271D+00
 Coeff:      0.849D+00
 Gap=     0.421 Goal=   None    Shift=    0.000
 Gap=     0.370 Goal=   None    Shift=    0.000
 RMSDP=7.23D-09 MaxDP=2.46D-07 DE= 2.27D-13 OVMax= 5.95D-07

 SCF Done:  E(UHF) =  -435.102193453     A.U. after   13 cycles
            NFock= 13  Conv=0.72D-08     -V/T= 2.0036
 <Sx>= 0.0000 <Sy>= 0.0000 <Sz>= 0.5000 <S**2>= 0.7527 S= 0.5013
 <L.S>= 0.000000000000E+00
 KE= 4.335200218783D+02 PE=-1.298769352013D+03 EE= 2.943171208490D+02
 Annihilation of the first spin contaminant:
 S**2 before annihilation     0.7527,   after     0.7500
 Leave Link  502 at Sat Mar  4 13:45:04 2017, MaxMem=   655360000 cpu:         1.8
 (Enter /mnt/software/gaussian/g09/l801.exe)
 Range of M.O.s used for correlation:     1    75
 NBasis=    75 NAE=    21 NBE=    20 NFC=     0 NFV=     0
 NROrb=     75 NOA=    21 NOB=    20 NVA=    54 NVB=    55
 Leave Link  801 at Sat Mar  4 13:45:04 2017, MaxMem=   655360000 cpu:         0.1
 (Enter /mnt/software/gaussian/g09/l1002.exe)
 Minotr:  UHF open shell wavefunction.
          Direct CPHF calculation.
          Differentiating once with respect to electric field.
                with respect to dipole field.
          Electric field/nuclear overlap derivatives assumed to be zero.
          Requested convergence is 1.0D-08 RMS, and 1.0D-07 maximum.
          Secondary convergence is 1.0D-12 RMS, and 1.0D-12 maximum.
          NewPWx=F KeepS1=T KeepF1=T KeepIn=T MapXYZ=F SortEE=F KeepMc=T.
          MDV=     655359806 using IRadAn=       2.
 Keep R1 and R2 ints in memory in canonical form, NReq=8971515.
 FoFCou: FMM=F IPFlag=           0 FMFlag=           0 FMFlg1=           0
         NFxFlg=           0 DoJE=F BraDBF=F KetDBF=F FulRan=T
         wScrn=  0.000000 ICntrl=     600 IOpCl=  0 I1Cent=           0 NGrid=           0
         NMat0=    1 NMatS0=   2850 NMatT0=    0 NMatD0=    1 NMtDS0=    0 NMtDT0=    0
 Symmetry not used in FoFCou.
          Solving linear equations simultaneously, MaxMat=       0.
          There are     3 degrees of freedom in the 1st order CPHF.  IDoFFX=0 NUNeed=     3.
      3 vectors produced by pass  0 Test12= 7.45D-14 3.33D-08 XBig12= 5.09D+00 6.92D-01.
 AX will form     3 AO Fock derivatives at one time.
      3 vectors produced by pass  1 Test12= 7.45D-14 3.33D-08 XBig12= 3.85D-01 1.10D-01.
      3 vectors produced by pass  2 Test12= 7.45D-14 3.33D-08 XBig12= 5.74D-02 8.31D-02.
      3 vectors produced by pass  3 Test12= 7.45D-14 3.33D-08 XBig12= 3.11D-03 1.64D-02.
      3 vectors produced by pass  4 Test12= 7.45D-14 3.33D-08 XBig12= 7.73D-05 3.08D-03.
      3 vectors produced by pass  5 Test12= 7.45D-14 3.33D-08 XBig12= 2.67D-06 3.30D-04.
      3 vectors produced by pass  6 Test12= 7.45D-14 3.33D-08 XBig12= 8.41D-08 6.85D-05.
      3 vectors produced by pass  7 Test12= 7.45D-14 3.33D-08 XBig12= 3.40D-09 3.72D-05.
      3 vectors produced by pass  8 Test12= 7.45D-14 3.33D-08 XBig12= 2.71D-10 4.85D-06.
      3 vectors produced by pass  9 Test12= 7.45D-14 3.33D-08 XBig12= 7.61D-12 7.11D-07.
      3 vectors produced by pass 10 Test12= 7.45D-14 3.33D-08 XBig12= 4.47D-13 2.72D-07.
      1 vectors produced by pass 11 Test12= 7.45D-14 3.33D-08 XBig12= 1.54D-14 3.70D-08.
 InvSVY:  IOpt=1 It=  1 EMax= 1.33D-15
 Solved reduced A of dimension    34 with     3 vectors.
 End of Minotr F.D. properties file   721 does not exist.
 End of Minotr F.D. properties file   722 does not exist.
 End of Minotr F.D. properties file   788 does not exist.
 Leave Link 1002 at Sat Mar  4 13:45:04 2017, MaxMem=   655360000 cpu:         2.4
 (Enter /mnt/software/gaussian/g09/l1101.exe)
 Using compressed storage, NAtomX=     5.
 Will process      6 centers per pass.
 Leave Link 1101 at Sat Mar  4 13:45:04 2017, MaxMem=   655360000 cpu:         0.8
 (Enter /mnt/software/gaussian/g09/l1102.exe)
 Symmetrizing basis deriv contribution to polar:
 IMax=3 JMax=2 DiffMx= 0.00D+00
 Leave Link 1102 at Sat Mar  4 13:45:04 2017, MaxMem=   655360000 cpu:         0.1
 (Enter /mnt/software/gaussian/g09/l1110.exe)
 Forming Gx(P) for the SCF density, NAtomX=     5.
 Integral derivatives from FoFJK, PRISM(SPDF).
 Do as many integral derivatives as possible in FoFJK.
 G2DrvN: MDV=     655359856.
 G2DrvN: will do     6 centers at a time, making    1 passes.
 PxScal for G2LodP:  IOpCl= 1 ISclPx=1 IMOff=     1 NMtTot=     4 NTT=    2850 ScalPx= 1.22D+00
 Calling FoFCou, ICntrl=  3107 FMM=F I1Cent=   0 AccDes= 0.00D+00.
 FoFJK:  IHMeth= 1 ICntrl=    3107 DoSepK=F KAlg= 0 I1Cent=   0 FoldK=F
 IRaf=         0 NMat=   1 IRICut=       1 DoRegI=T DoRafI=F ISym2E= 0.
 FoFCou: FMM=F IPFlag=           0 FMFlag=      100000 FMFlg1=           0
         NFxFlg=           0 DoJE=F BraDBF=F KetDBF=F FulRan=T
         wScrn=  0.000000 ICntrl=    3107 IOpCl=  1 I1Cent=           0 NGrid=           0
         NMat0=    1 NMatS0=      1 NMatT0=    0 NMatD0=    4 NMtDS0=    3 NMtDT0=    0
 Symmetry not used in FoFCou.
 End of G2Drv F.D. properties file   721 does not exist.
 End of G2Drv F.D. properties file   722 does not exist.
 End of G2Drv F.D. properties file   788 does not exist.
 Leave Link 1110 at Sat Mar  4 13:45:05 2017, MaxMem=   655360000 cpu:         2.1
 (Enter /mnt/software/gaussian/g09/l1002.exe)
 Minotr:  UHF open shell wavefunction.
          IDoAtm=11111
          Direct CPHF calculation.
          Differentiating once with respect to electric field.
                with respect to dipole field.
          Differentiating once with respect to nuclear coordinates.
          Requested convergence is 1.0D-08 RMS, and 1.0D-07 maximum.
          Secondary convergence is 1.0D-12 RMS, and 1.0D-12 maximum.
          NewPWx=T KeepS1=F KeepF1=F KeepIn=T MapXYZ=F SortEE=F KeepMc=T.
          MDV=     655359796 using IRadAn=       2.
 Keep R1 and R2 ints in memory in canonical form, NReq=8971630.
 FoFCou: FMM=F IPFlag=           0 FMFlag=           0 FMFlg1=           0
         NFxFlg=           0 DoJE=F BraDBF=F KetDBF=F FulRan=T
         wScrn=  0.000000 ICntrl=     600 IOpCl=  0 I1Cent=           0 NGrid=           0
         NMat0=    1 NMatS0=   2850 NMatT0=    0 NMatD0=    1 NMtDS0=    0 NMtDT0=    0
 Symmetry not used in FoFCou.
          Solving linear equations simultaneously, MaxMat=       0.
          There are    18 degrees of freedom in the 1st order CPHF.  IDoFFX=5 NUNeed=    18.
 Will reuse    3 saved solutions.
     12 vectors produced by pass  0 Test12= 1.24D-14 5.56D-09 XBig12= 1.87D-01 9.10D-02.
 AX will form    12 AO Fock derivatives at one time.
     12 vectors produced by pass  1 Test12= 1.24D-14 5.56D-09 XBig12= 1.87D-02 5.37D-02.
     12 vectors produced by pass  2 Test12= 1.24D-14 5.56D-09 XBig12= 2.85D-03 1.39D-02.
     12 vectors produced by pass  3 Test12= 1.24D-14 5.56D-09 XBig12= 7.10D-05 1.81D-03.
     10 vectors produced by pass  4 Test12= 1.24D-14 5.56D-09 XBig12= 1.02D-06 2.46D-04.
      9 vectors produced by pass  5 Test12= 1.24D-14 5.56D-09 XBig12= 1.22D-08 2.00D-05.
      9 vectors produced by pass  6 Test12= 1.24D-14 5.56D-09 XBig12= 2.78D-10 2.21D-06.
      6 vectors produced by pass  7 Test12= 1.24D-14 5.56D-09 XBig12= 2.64D-12 4.63D-07.
      3 vectors produced by pass  8 Test12= 1.24D-14 5.56D-09 XBig12= 2.01D-14 2.09D-08.
 InvSVY:  IOpt=1 It=  1 EMax= 1.29D-15
 Solved reduced A of dimension    85 with    12 vectors.
 FullF1:  Do perturbations    1 to     3.
 Isotropic polarizability for W=    0.000000       12.49 Bohr**3.
 FullF1:  Do perturbations    1 to     6.
 End of Minotr F.D. properties file   721 does not exist.
 End of Minotr F.D. properties file   722 does not exist.
 End of Minotr F.D. properties file   788 does not exist.
 Leave Link 1002 at Sat Mar  4 13:45:05 2017, MaxMem=   655360000 cpu:         3.8
 (Enter /mnt/software/gaussian/g09/l601.exe)
 Copying SCF densities to generalized density rwf, IOpCl= 1 IROHF=0.

 **********************************************************************

            Population analysis using the SCF density.

 **********************************************************************

 Orbital symmetries:
 Alpha Orbitals:
       Occupied  (A) (A) (A) (A) (A) (A) (A) (A) (A) (A) (A) (A)
                 (A) (A) (A) (A) (A) (A) (A) (A) (A)
       Virtual   (A) (A) (A) (A) (A) (A) (A) (A) (A) (A) (A) (A)
                 (A) (A) (A) (A) (A) (A) (A) (A) (A) (A) (A) (A)
                 (A) (A) (A) (A) (A) (A) (A) (A) (A) (A) (A) (A)
                 (A) (A) (A) (A) (A) (A) (A) (A) (A) (A) (A) (A)
                 (A) (A) (A) (A) (A) (A)
 Beta  Orbitals:
       Occupied  (A) (A) (A) (A) (A) (A) (A) (A) (A) (A) (A) (A)
                 (A) (A) (A) (A) (A) (A) (A) (A)
       Virtual   (A) (A) (A) (A) (A) (A) (A) (A) (A) (A) (A) (A)
                 (A) (A) (A) (A) (A) (A) (A) (A) (A) (A) (A) (A)
                 (A) (A) (A) (A) (A) (A) (A) (A) (A) (A) (A) (A)
                 (A) (A) (A) (A) (A) (A) (A) (A) (A) (A) (A) (A)
                 (A) (A) (A) (A) (A) (A) (A)
 The electronic state is 2-A.
 Alpha  occ. eigenvalues --  -26.76107 -26.75972 -26.71506 -26.43405 -11.98103
 Alpha  occ. eigenvalues --   -2.13242  -2.05262  -1.98366  -1.68787  -1.31917
 Alpha  occ. eigenvalues --   -1.21548  -1.19771  -1.15632  -1.06517  -1.04270
 Alpha  occ. eigenvalues --   -1.03913  -1.00771  -1.00365  -0.85611  -0.74822
 Alpha  occ. eigenvalues --   -0.74819
 Alpha virt. eigenvalues --   -0.32700   0.04912   0.07487   0.12047   0.33363
 Alpha virt. eigenvalues --    0.34870   0.38643   0.39314   0.99878   1.01055
 Alpha virt. eigenvalues --    1.03501   1.04408   1.05108   1.05980   1.27303
 Alpha virt. eigenvalues --    1.27457   1.28387   1.31369   1.32861   1.33205
 Alpha virt. eigenvalues --    1.33269   1.40042   1.40047   1.42117   1.61654
 Alpha virt. eigenvalues --    1.62812   1.72514   1.74547   1.77190   1.79576
 Alpha virt. eigenvalues --    1.80618   1.83255   1.90471   1.97032   2.00753
 Alpha virt. eigenvalues --    2.02228   2.02479   2.02482   2.03300   2.07895
 Alpha virt. eigenvalues --    2.07895   2.34176   2.44777   2.48121   2.75312
 Alpha virt. eigenvalues --    2.78187   3.04475   3.05395   3.12542   3.66558
 Alpha virt. eigenvalues --    4.20289   4.25123   4.40436   4.64991
  Beta  occ. eigenvalues --  -26.76107 -26.75972 -26.71506 -26.38630 -11.98103
  Beta  occ. eigenvalues --   -2.13242  -2.05262  -1.98366  -1.49596  -1.31917
  Beta  occ. eigenvalues --   -1.21548  -1.19771  -1.15632  -1.06517  -1.04270
  Beta  occ. eigenvalues --   -1.03913  -1.00771  -1.00365  -0.69657  -0.69655
  Beta virt. eigenvalues --   -0.32700   0.04912   0.06072   0.07487   0.12047
  Beta virt. eigenvalues --    0.33363   0.34870   0.38643   0.39314   0.99878
  Beta virt. eigenvalues --    1.01055   1.04408   1.05108   1.05980   1.06731
  Beta virt. eigenvalues --    1.27303   1.27457   1.28387   1.31369   1.32861
  Beta virt. eigenvalues --    1.33269   1.42117   1.42567   1.42573   1.55555
  Beta virt. eigenvalues --    1.61654   1.62812   1.72514   1.74547   1.77190
  Beta virt. eigenvalues --    1.79576   1.80618   1.83255   1.90471   1.97032
  Beta virt. eigenvalues --    2.02228   2.03300   2.08569   2.08569   2.11360
  Beta virt. eigenvalues --    2.11363   2.12463   2.34176   2.44777   2.48121
  Beta virt. eigenvalues --    2.75312   2.78187   3.04475   3.05395   3.12542
  Beta virt. eigenvalues --    3.70858   4.20289   4.25123   4.40436   4.64991
          Condensed to atoms (all electrons):
               1          2          3          4          5
     1  C    3.540834   0.389195   0.342335   0.000000   0.385805
     2  F    0.389195   8.755297  -0.034802   0.000000  -0.026112
     3  F    0.342335  -0.034802   8.893762   0.000000  -0.032941
     4  F    0.000000   0.000000   0.000000   9.000000   0.000000
     5  F    0.385805  -0.026112  -0.032941   0.000000   8.763146
          Atomic-Atomic Spin Densities.
               1          2          3          4          5
     1  C    0.000000   0.000000   0.000000   0.000000   0.000000
     2  F    0.000000   0.000000   0.000000   0.000000   0.000000
     3  F    0.000000   0.000000   0.000000   0.000000   0.000000
     4  F    0.000000   0.000000   0.000000   1.000000   0.000000
     5  F    0.000000   0.000000   0.000000   0.000000   0.000000
 Mulliken charges and spin densities:
               1          2
     1  C    1.341831   0.000000
     2  F   -0.083577   0.000000
     3  F   -0.168355   0.000000
     4  F    0.000000   1.000000
     5  F   -0.089898   0.000000
 Sum of Mulliken charges =   1.00000   1.00000
 Mulliken charges and spin densities with hydrogens summed into heavy atoms:
               1          2
     1  C    1.341831   0.000000
     2  F   -0.083577   0.000000
     3  F   -0.168355   0.000000
     4  F    0.000000   1.000000
     5  F   -0.089898   0.000000
 APT charges:
               1
     1  C    1.915465
     2  F   -0.318460
     3  F   -0.282396
     4  F    0.000001
     5  F   -0.314610
 Sum of APT charges =   1.00000
 APT charges with hydrogens summed into heavy atoms:
               1
     1  C    1.915465
     2  F   -0.318460
     3  F   -0.282396
     4  F    0.000001
     5  F   -0.314610
 Electronic spatial extent (au):  <R**2>=           6474.5090
 Charge=              1.0000 electrons
 Dipole moment (field-independent basis, Debye):
    X=             17.3618    Y=              0.2756    Z=             -1.4915  Tot=             17.4279
 Quadrupole moment (field-independent basis, Debye-Ang):
   XX=             41.3684   YY=            -21.0101   ZZ=            -19.5907
   XY=              0.8037   XZ=             -5.5223   YZ=              0.1943
 Traceless Quadrupole moment (field-independent basis, Debye-Ang):
   XX=             41.1125   YY=            -21.2660   ZZ=            -19.8466
   XY=              0.8037   XZ=             -5.5223   YZ=              0.1943
 Octapole moment (field-independent basis, Debye-Ang**2):
  XXX=            229.0110  YYY=              1.0365  ZZZ=              0.0448  XYY=              1.3155
  XXY=              1.1892  XXZ=            -20.6173  XZZ=             -2.6180  YZZ=              0.0421
  YYZ=              0.8922  XYZ=             -4.5400
 Hexadecapole moment (field-independent basis, Debye-Ang**3):
 XXXX=          -4743.1989 YYYY=            -70.6823 ZZZZ=            -16.1368 XXXY=              3.8169
 XXXZ=            -58.0885 YYYX=              2.8927 YYYZ=              0.5297 ZZZX=             -0.8081
 ZZZY=             -0.0870 XXYY=           -916.8381 XXZZ=           -806.2609 YYZZ=            -14.8174
 XXYZ=             44.9152 YYXZ=              3.4657 ZZXY=             -0.5706
 N-N= 1.358300158326D+02 E-N=-1.298769352100D+03  KE= 4.335200218783D+02
  Exact polarizability:  13.681   0.134  13.859   0.898   0.010   9.922
 Approx polarizability:  12.745   0.049  12.978   0.528  -0.052   9.951
                          Isotropic Fermi Contact Couplings
        Atom                 a.u.       MegaHertz       Gauss      10(-4) cm-1
     1  C(13)              0.00000       0.00000       0.00000       0.00000
     2  F(19)              0.00000       0.00000       0.00000       0.00000
     3  F(19)              0.00000       0.00000       0.00000       0.00000
     4  F(19)              0.06931     291.59977     104.05005      97.26721
     5  F(19)              0.00000       0.00000       0.00000       0.00000
 --------------------------------------------------------
       Center         ----  Spin Dipole Couplings  ----
                      3XX-RR        3YY-RR        3ZZ-RR
 --------------------------------------------------------
     1   Atom        0.000073     -0.000036     -0.000036
     2   Atom        0.000062     -0.000031     -0.000031
     3   Atom        0.000093     -0.000046     -0.000046
     4   Atom       -2.902502     -1.509286      4.411788
     5   Atom        0.000072     -0.000036     -0.000036
 --------------------------------------------------------
                        XY            XZ            YZ
 --------------------------------------------------------
     1   Atom        0.000000     -0.000002      0.000000
     2   Atom       -0.000004      0.000002      0.000000
     3   Atom       -0.000005     -0.000003      0.000000
     4   Atom        0.113312      0.258941      3.204734
     5   Atom        0.000008      0.000000      0.000000
 --------------------------------------------------------


 ---------------------------------------------------------------------------------
              Anisotropic Spin Dipole Couplings in Principal Axis System
 ---------------------------------------------------------------------------------

       Atom             a.u.   MegaHertz   Gauss  10(-4) cm-1        Axes

              Baa     0.0000    -0.005    -0.002    -0.002 -0.0087  0.9162 -0.4006
     1 C(13)  Bbb     0.0000    -0.005    -0.002    -0.002  0.0160  0.4007  0.9161
              Bcc     0.0001     0.010     0.003     0.003  0.9998  0.0015 -0.0182
 
              Baa     0.0000    -0.016    -0.006    -0.005  0.0478  0.9145 -0.4019
     2 F(19)  Bbb     0.0000    -0.016    -0.006    -0.005  0.0031  0.4022  0.9156
              Bcc     0.0001     0.031     0.011     0.010  0.9989 -0.0450  0.0164
 
              Baa     0.0000    -0.023    -0.008    -0.008  0.0231  0.9156 -0.4015
     3 F(19)  Bbb     0.0000    -0.023    -0.008    -0.008  0.0326  0.4007  0.9156
              Bcc     0.0001     0.047     0.017     0.016  0.9992 -0.0343 -0.0206
 
              Baa    -2.9117 -1462.316  -521.791  -487.776 -0.0118  0.9162 -0.4005
     4 F(19)  Bbb    -2.9117 -1462.309  -521.788  -487.774  0.9994 -0.0022 -0.0344
              Bcc     5.8233  2924.625  1043.579   975.550  0.0324  0.4007  0.9156
 
              Baa     0.0000    -0.018    -0.007    -0.006 -0.0701  0.9148 -0.3978
     5 F(19)  Bbb     0.0000    -0.018    -0.006    -0.006 -0.0335  0.3964  0.9175
              Bcc     0.0001     0.036     0.013     0.012  0.9970  0.0776  0.0029
 

 ---------------------------------------------------------------------------------

 No NMR shielding tensors so no spin-rotation constants.
 Leave Link  601 at Sat Mar  4 13:45:06 2017, MaxMem=   655360000 cpu:         1.2
 (Enter /mnt/software/gaussian/g09/l701.exe)
 Compute integral second derivatives.
 ... and contract with generalized density number  0.
 Entering OneElI...
 Calculate overlap and kinetic energy integrals
    NBasis =  75  MinDer = 2  MaxDer = 2
 Requested accuracy = 0.1000D-12
 PrsmSu:  NPrtUS=   6 ThrOK=T IAlg=1 NPAlg=1 LenDen=           0.
 Prism:   IPart=     0 DynPar=F LinDyn=F Incr=           1.
 PRISM was handed   109212905 working-precision words and   146 shell-pairs
 PRISM was handed   109212905 working-precision words and   146 shell-pairs
 PRISM was handed   109212905 working-precision words and   146 shell-pairs
 PRISM was handed   109212905 working-precision words and   146 shell-pairs
 PRISM was handed   109212905 working-precision words and   146 shell-pairs
 PRISM was handed   109212905 working-precision words and   146 shell-pairs
 IPart=  3 NShTot=          23 NBatch=          11 AvBLen=         2.1
 IPart=  2 NShTot=          27 NBatch=          15 AvBLen=         1.8
 IPart=  5 NShTot=          15 NBatch=          10 AvBLen=         1.5
 IPart=  0 NShTot=          29 NBatch=          15 AvBLen=         1.9
 IPart=  4 NShTot=          23 NBatch=          11 AvBLen=         2.1
 IPart=  1 NShTot=          29 NBatch=          15 AvBLen=         1.9
 PrSmSu:  NxtVal=              7.
 Entering OneElI...
 Calculate potential energy integrals
    NBasis =  75  MinDer = 2  MaxDer = 2
 Requested accuracy = 0.1000D-12
 PrsmSu:  NPrtUS=   6 ThrOK=T IAlg=1 NPAlg=1 LenDen=           0.
 Prism:   IPart=     0 DynPar=F LinDyn=F Incr=           1.
 PRISM was handed   109214708 working-precision words and   143 shell-pairs
 PRISM was handed   109214708 working-precision words and   143 shell-pairs
 PRISM was handed   109214708 working-precision words and   143 shell-pairs
 PRISM was handed   109214708 working-precision words and   143 shell-pairs
 PRISM was handed   109214708 working-precision words and   143 shell-pairs
 PRISM was handed   109214708 working-precision words and   143 shell-pairs
 IPart=  2 NShTot=         125 NBatch=          25 AvBLen=         5.0
 IPart=  3 NShTot=         120 NBatch=          24 AvBLen=         5.0
 IPart=  5 NShTot=          70 NBatch=          14 AvBLen=         5.0
 IPart=  4 NShTot=         115 NBatch=          23 AvBLen=         5.0
 IPart=  0 NShTot=         145 NBatch=          29 AvBLen=         5.0
 IPart=  1 NShTot=         140 NBatch=          28 AvBLen=         5.0
 PrSmSu:  NxtVal=              7.
 Polarizability after L701:
                1             2             3 
      1  0.136812D+02
      2  0.134067D+00  0.138590D+02
      3  0.897629D+00  0.100419D-01  0.992154D+01
 Dipole Derivatives after L701:
                 1             2             3             4             5 
      1   0.211181D+01 -0.606996D-01  0.325844D+00 -0.437201D+00  0.222537D+00
      2  -0.636627D-01  0.231032D+01  0.141100D-01  0.176135D+00 -0.383806D+00
      3   0.284945D+00 -0.810701D-03  0.132426D+01 -0.104579D+00  0.604613D-01
                 6             7             8             9            10 
      1  -0.274382D+00 -0.472925D+00 -0.106418D+00  0.244819D-01 -0.115060D-03
      2   0.160342D+00 -0.119122D+00 -0.265902D+00  0.236213D-01  0.000000D+00
      3  -0.134373D+00 -0.140799D+00 -0.472485D-01 -0.108360D+00  0.325115D-05
                11            12            13            14            15 
      1  -0.191345D-05  0.000000D+00 -0.201572D+00 -0.554171D-01 -0.759441D-01
      2   0.575081D-04  0.132830D-05  0.665111D-02 -0.660670D+00 -0.198075D+00
      3   0.115329D-05  0.592986D-04 -0.395708D-01 -0.124032D-01 -0.815867D-01
 Hessian after L701:
                1             2             3             4             5 
      1  0.158239D+02
      2  0.147238D+01  0.114700D+02
      3 -0.432970D+01  0.342997D+00  0.289394D+02
      4 -0.625563D+01 -0.584581D+01  0.497904D+01  0.519985D+01
      5 -0.566901D+01 -0.608329D+01 -0.477764D+01  0.706952D+01  0.537581D+01
      6  0.451778D+01 -0.445598D+01 -0.871614D+01 -0.549784D+01  0.493137D+01
      7  0.215034D+01  0.477060D+01 -0.668528D+00  0.150158D+01 -0.488148D+00
      8  0.482037D+01 -0.728611D+01 -0.312087D+00 -0.104983D+00 -0.867407D+00
      9 -0.154366D+00 -0.940631D-01 -0.952191D+01  0.520919D+00 -0.423855D-01
     10  0.477474D-02  0.113822D-03 -0.380061D-02  0.732542D-02 -0.287178D-02
     11  0.883390D-05 -0.184240D-02 -0.989734D-05 -0.395810D-03 -0.247863D-02
     12 -0.203438D-03 -0.622437D-05 -0.146339D-02  0.122587D-03  0.583724D-05
     13 -0.117234D+02 -0.397280D+00  0.229917D-01 -0.453128D+00 -0.909486D+00
     14 -0.623752D+00  0.190124D+01  0.474674D+01 -0.111833D+01  0.157736D+01
     15 -0.335036D-01  0.420705D+01 -0.106999D+02 -0.223872D-02 -0.111347D+00
                6             7             8             9            10 
      6  0.102598D+02
      7  0.842542D+00 -0.359749D+01
      8  0.281431D-01 -0.571694D+01  0.735428D+01
      9 -0.647037D+00 -0.559927D+00 -0.101796D+00  0.109191D+02
     10  0.215195D-02  0.408424D-02 -0.187178D-02  0.822969D-04 -0.217233D-01
     11 -0.487006D-04 -0.333414D-03 -0.377494D-02  0.755597D-05  0.404680D-04
     12 -0.258735D-02 -0.123320D-03  0.518081D-04 -0.384823D-02  0.167271D-03
     13  0.135372D+00 -0.585143D-01  0.100342D+01  0.193292D+00  0.553888D-02
     14 -0.503482D+00  0.143483D+01  0.803006D+00  0.238237D+00  0.458927D-02
     15 -0.894070D+00  0.386036D+00  0.385688D+00 -0.746296D+00  0.139910D-02
               11            12            13            14            15 
     11  0.108238D-01
     12 -0.333915D-05  0.108995D-01
     13  0.679922D-03  0.369004D-04  0.122295D+02
     14 -0.272784D-02 -0.480818D-04  0.302662D+00 -0.427888D+01
     15  0.543811D-04 -0.300049D-02 -0.351693D+00 -0.448145D+01  0.123433D+02
 Leave Link  701 at Sat Mar  4 13:45:06 2017, MaxMem=   655360000 cpu:         0.9
 (Enter /mnt/software/gaussian/g09/l702.exe)
 L702 exits ... SP integral derivatives will be done elsewhere.
 Leave Link  702 at Sat Mar  4 13:45:06 2017, MaxMem=   655360000 cpu:         0.1
 (Enter /mnt/software/gaussian/g09/l703.exe)
 Compute integral second derivatives, UseDBF=F ICtDFT=           0.
 Integral derivatives from FoFJK, PRISM(SPDF).
 ICntrl=    100127.
 Calling FoFJK, ICntrl=    100127 FMM=F ISym2X=0 I1Cent= 0 IOpClX= 1 NMat=1 NMatS=1 NMatT=0.
 FoFJK:  IHMeth= 1 ICntrl=  100127 DoSepK=F KAlg= 0 I1Cent=   0 FoldK=F
 IRaf=         0 NMat=   1 IRICut=       1 DoRegI=T DoRafI=F ISym2E= 0.
 FoFCou: FMM=F IPFlag=           0 FMFlag=      100000 FMFlg1=         800
         NFxFlg=           0 DoJE=F BraDBF=F KetDBF=F FulRan=T
         wScrn=  0.000000 ICntrl=  100127 IOpCl=  1 I1Cent=           0 NGrid=           0
         NMat0=    1 NMatS0=      1 NMatT0=    0 NMatD0=    1 NMtDS0=    0 NMtDT0=    0
 Symmetry not used in FoFCou.
 FoFCou:  KetSym=F NOpSet=  1 NOpAb=1 NOp=  1.
 FoFCou:  CnvScl= 1.00D+00 Thresh= 1.00D-10 IAcrcy=      10.
 PrismS was handed   655323848 working-precision words and   143 shell-pairs
 FoFCou: LinMIO=F DoNuc=F BraDBF=F KetDBF=F HaveP=T PDBF=F HaveZ=T HaveW=F
         NIJTC =       6 NIJTAt=       0 NIJTCD=       0 NIJTT =       6
         IJTBeg=       1 IJTEnd=       6 KLTBeg=       1 KLTEnd=       6
         IPTBeg=       1 IPTEnd=       6 IPTBCv=       1 IPTECv=       6
         IZTBeg=       1 IZTEnd=       6 IZTBCv=       1 IZTECv=       6
         IWTBeg=       7 IWTEnd=       6 IWTBCv=       7 IWTECv=       6
         INTBeg=       1 INTEnd=       0 IFTBCv=       1 IFTECv=       6
 NCel replicated for PrismC:     1
 CoulSu:  IncDef=  1024 NBBP=          10296 NTPThr=   100 NPartT=    6 Incr=          17 LDynOK=F.
 CoulSu:  NPrtUS=   6 ThrOK=T IAlg=1 NPAlg=1 LenDen=           0 LWGrdD=           0 DoCopy=F.
 Enter PrismC: JobTyp=22 DoJE=F Cont=F.
 PrismC:  IPart=     0 DynPar=F LinDyn=F Incr=          17 UseFst=F UseS4=T IGathr=2.
 PrismC was handed   109213436 working-precision words and   143 shell-pairs
 Enter PrismC: JobTyp=22 DoJE=F Cont=F.
 PrismC was handed   109213436 working-precision words and   143 shell-pairs
 Enter PrismC: JobTyp=22 DoJE=F Cont=F.
 PrismC was handed   109213436 working-precision words and   143 shell-pairs
 Enter PrismC: JobTyp=22 DoJE=F Cont=F.
 PrismC was handed   109213436 working-precision words and   143 shell-pairs
 Enter PrismC: JobTyp=22 DoJE=F Cont=F.
 PrismC was handed   109213436 working-precision words and   143 shell-pairs
 Enter PrismC: JobTyp=22 DoJE=F Cont=F.
 PrismC was handed   109213436 working-precision words and   143 shell-pairs
 IPart=  4 NShTot=        1649 NShNF=        1649 NShFF=           0 NBatch=         167 AvBLen=         9.9
 IPart=  2 NShTot=        1654 NShNF=        1654 NShFF=           0 NBatch=         167 AvBLen=         9.9
 IPart=  5 NShTot=        1642 NShNF=        1642 NShFF=           0 NBatch=         163 AvBLen=        10.1
 IPart=  3 NShTot=        1647 NShNF=        1647 NShFF=           0 NBatch=         165 AvBLen=        10.0
 IPart=  1 NShTot=        1632 NShNF=        1632 NShFF=           0 NBatch=         167 AvBLen=         9.8
 IPart=  0 NShTot=        1772 NShNF=        1772 NShFF=           0 NBatch=         176 AvBLen=        10.1
 CoulSu:  NxtVal=            103.
 Polarizability after L703:
                1             2             3 
      1  0.136812D+02
      2  0.134067D+00  0.138590D+02
      3  0.897629D+00  0.100419D-01  0.992154D+01
 Dipole Derivatives after L703:
                 1             2             3             4             5 
      1   0.211181D+01 -0.606996D-01  0.325844D+00 -0.437201D+00  0.222537D+00
      2  -0.636627D-01  0.231032D+01  0.141100D-01  0.176135D+00 -0.383806D+00
      3   0.284945D+00 -0.810701D-03  0.132426D+01 -0.104579D+00  0.604613D-01
                 6             7             8             9            10 
      1  -0.274382D+00 -0.472925D+00 -0.106418D+00  0.244819D-01 -0.115060D-03
      2   0.160342D+00 -0.119122D+00 -0.265902D+00  0.236213D-01  0.000000D+00
      3  -0.134373D+00 -0.140799D+00 -0.472485D-01 -0.108360D+00  0.325115D-05
                11            12            13            14            15 
      1  -0.191345D-05  0.000000D+00 -0.201572D+00 -0.554171D-01 -0.759441D-01
      2   0.575081D-04  0.132830D-05  0.665111D-02 -0.660670D+00 -0.198075D+00
      3   0.115329D-05  0.592986D-04 -0.395708D-01 -0.124032D-01 -0.815867D-01
 Hessian after L703:
                1             2             3             4             5 
      1  0.567382D+00
      2 -0.112635D+00  0.807640D+00
      3  0.140207D+00 -0.560074D-02  0.387622D+00
      4 -0.272445D+00  0.140376D+00 -0.101538D+00  0.340711D+00
      5  0.148369D+00 -0.247458D+00  0.872694D-01 -0.199198D+00  0.291738D+00
      6 -0.126285D+00  0.993374D-01 -0.161456D+00  0.144917D+00 -0.112109D+00
      7 -0.179423D+00 -0.276717D-01 -0.311655D-01 -0.815211D-01  0.756009D-02
      8 -0.242975D-01 -0.132957D+00 -0.119815D-01  0.202642D-01  0.242155D-01
      9  0.668013D-03  0.159434D-02 -0.109875D+00 -0.377509D-01  0.588379D-02
     10  0.000000D+00  0.000000D+00  0.000000D+00  0.000000D+00  0.000000D+00
     11  0.000000D+00  0.000000D+00  0.000000D+00  0.000000D+00  0.000000D+00
     12  0.000000D+00  0.000000D+00  0.000000D+00  0.000000D+00  0.000000D+00
     13 -0.115514D+00 -0.688382D-04 -0.750340D-02  0.132543D-01  0.432693D-01
     14 -0.114361D-01 -0.427224D+00 -0.696872D-01  0.385584D-01 -0.684951D-01
     15 -0.145892D-01 -0.953309D-01 -0.116291D+00 -0.562833D-02  0.189560D-01
                6             7             8             9            10 
      6  0.127192D+00
      7 -0.189337D-01  0.271773D+00
      8  0.970188D-02  0.622154D-01  0.157582D+00
      9  0.141816D-01  0.495748D-01  0.136798D-01  0.755269D-01
     10  0.000000D+00  0.000000D+00  0.000000D+00  0.000000D+00  0.000000D+00
     11  0.000000D+00  0.000000D+00  0.000000D+00  0.000000D+00  0.000000D+00
     12  0.000000D+00  0.000000D+00  0.000000D+00  0.000000D+00  0.000000D+00
     13  0.301889D-03 -0.108280D-01 -0.581821D-01 -0.124919D-01  0.000000D+00
     14  0.306991D-02 -0.421039D-01 -0.488408D-01 -0.211579D-01  0.000000D+00
     15  0.200816D-01  0.524225D-03 -0.114003D-01  0.201667D-01  0.000000D+00
               11            12            13            14            15 
     11  0.000000D+00
     12  0.000000D+00  0.000000D+00
     13  0.000000D+00  0.000000D+00  0.113088D+00
     14  0.000000D+00  0.000000D+00  0.149816D-01  0.544560D+00
     15  0.000000D+00  0.000000D+00  0.196934D-01  0.877752D-01  0.760429D-01
 Leave Link  703 at Sat Mar  4 13:45:06 2017, MaxMem=   655360000 cpu:         4.6
 (Enter /mnt/software/gaussian/g09/l716.exe)
 FrcOut:
 IF    =    42 IFX   =    57 IFXYZ =    72
 IFFX  =    87 IFFFX =   207 IFLen =    15
 IFFLen=   120 IFFFLn=     0 IEDerv=   207
 LEDerv=   773 IFroze=  1169 ICStrt= 12633
 Dipole        = 6.83065043D+00 1.08416313D-01-5.86811360D-01
 DipoleDeriv   = 2.11181362D+00-6.36626531D-02 2.84944850D-01
                -6.06996375D-02 2.31032101D+00-8.10701404D-04
                 3.25843905D-01 1.41100421D-02 1.32426010D+00
                -4.37200751D-01 1.76134525D-01-1.04578749D-01
                 2.22536610D-01-3.83806040D-01 6.04612665D-02
                -2.74382200D-01 1.60342369D-01-1.34372741D-01
                -4.72925421D-01-1.19122082D-01-1.40798516D-01
                -1.06417924D-01-2.65902222D-01-4.72485105D-02
                 2.44818887D-02 2.36212659D-02-1.08359946D-01
                -1.15060429D-04-9.01564264D-07 3.25115124D-06
                -1.91345075D-06 5.75080814D-05 1.15329279D-06
                 4.98915818D-07 1.32830231D-06 5.92985884D-05
                -2.01572385D-01 6.65111163D-03-3.95708355D-02
                -5.54171349D-02-6.60670256D-01-1.24032078D-02
                -7.59440928D-02-1.98075005D-01-8.15867080D-02
 Polarizability= 1.36812277D+01 1.34067224D-01 1.38590181D+01
                 8.97629080D-01 1.00418933D-02 9.92153983D+00
 PolarDeriv    = 3.36659912D+00 1.09379999D+00 6.30115276D-01
                -1.68940020D+00 1.30414519D-01 3.68733650D-02
                 1.00103926D+00 7.58041390D-01-2.59595886D-01
                 1.56059719D-01-1.94250463D+00 6.59769315D-02
                -1.88346222D+00 7.48269142D-02-1.97111220D+00
                 4.62601830D-01 2.21111076D-01-3.69830660D+00
                 3.35486053D+00-1.37816605D+00 8.63834947D-01
                 1.30886693D+00-3.61126336D-01 6.18504644D-01
                -8.52130771D-01 1.51773188D+00-3.27527591D+00
                -4.22019879D-01 1.00934162D+00-6.80642342D-01
                 1.24232897D+00-2.05010704D-01 9.19982908D-01
                 1.18255753D+00-1.09574129D+00 2.07522030D+00
                -6.69898855D+00-1.56613160D+00-1.40361787D+00
                -5.27927137D-02 9.54309334D-02-5.26520355D-01
                -1.17331386D+00-2.28383953D+00-2.27113378D+00
                 6.71945203D-02-5.60001892D-02-1.61451917D-01
                -3.97552584D-02-5.97362929D-02 1.99162877D-01
                -1.61698670D+00-6.57446761D-01 3.15876204D-01
                 3.07869908D-04 3.69292847D-06-1.38828167D-04
                -5.68676248D-07 1.09758059D-05-6.77605834D-05
                -8.18301771D-06-1.31670494D-04-1.37970866D-05
                 3.19443319D-05-9.45137230D-06-1.41037710D-05
                 4.34149781D-06 3.81439811D-05-4.21625005D-06
                -5.11458483D-05-1.56502039D-05-4.05798780D-05
                -2.27789660D-02 1.85049397D+00-9.01935286D-02
                 4.33326546D-01 1.35269907D-01-1.28789893D-01
                 1.02441355D+00 8.19793727D-03 5.80601938D+00
                 1.98733695D-01 9.89172654D-01 7.76131431D-01
                 6.80884159D-01 1.89881939D-01 8.51970632D-01
                -2.81215073D-02 1.53209263D+00 1.30725068D+00
 HyperPolar    = 1.18463941D+01 6.65370027D+00 1.19290550D+00
                -5.68221019D+00-7.57443919D+00 1.90648132D+00
                -9.79604572D+00-3.75150073D-01 7.60820935D-01
                -8.42319616D+00
 VibFq2-Diag1:  N=     15 IV=           6 MDV=   655346161 NE2=    43689743
 Full mass-weighted force constant matrix:
 Low frequencies ---   -0.5453   -0.0019   -0.0011   -0.0004    0.2693    0.4478
 Low frequencies ---  187.4869  202.8232  223.2737
 OrtVCM:  Ph=1 IPass= 1 DotMx1= 0.00D+00
 OrtVCM:  IS=    1 I=    1 IndO=    1 Dot= 1.00D+00 DotN= 1.00D+00 ElMax1= 4.65D-01 ElMax1N= 4.65D-01
 OrtVCM:  Ph=2 NNew=    0 IAdd=    2 IPass= 1 DotMx2= 0.00D+00
 OrtVCM:  IS=    1 I=    2 IndO=    2 Dot= 1.00D+00 DotN= 1.00D+00 ElMax1= 4.65D-01 ElMax1N= 4.65D-01
 OrtVCM:  Ph=2 NNew=    0 IAdd=    3 IPass= 1 DotMx2= 0.00D+00
 OrtVCM:  IS=    1 I=    3 IndO=    3 Dot= 1.00D+00 DotN= 1.00D+00 ElMax1= 4.65D-01 ElMax1N= 4.65D-01
 OrtVCM:  Ph=2 NNew=    0 IAdd=    4 IPass= 1 DotMx2= 1.11D-16
 OrtVCM:  IS=    1 I=    4 IndO=    4 Dot= 1.00D+00 DotN= 1.00D+00 ElMax1= 7.73D-01 ElMax1N= 7.73D-01
 OrtVCM:  Ph=2 NNew=    0 IAdd=    5 IPass= 1 DotMx2= 5.97D-15
 OrtVCM:  IS=    1 I=    5 IndO=    5 Dot= 1.00D+00 DotN= 1.00D+00 ElMax1= 8.80D-01 ElMax1N= 8.80D-01
 OrtVCM:  Ph=2 NNew=    0 IAdd=    6 IPass= 1 DotMx2= 1.04D-15
 OrtVCM:  IS=    1 I=    6 IndO=    6 Dot= 1.00D+00 DotN= 1.00D+00 ElMax1= 8.75D-01 ElMax1N= 8.75D-01
 OrtVCM:  Ph=1 IPass= 1 DotMx1= 4.69D-01
 OrtVCM:  Ph=1 IPass= 2 DotMx1= 1.39D-16
 OrtVCM:  IS=    1 I=    1 IndO=    7 Dot= 8.63D-01 DotN= 8.63D-01 ElMax1= 8.63D-01 ElMax1N= 8.63D-01
 OrtVCM:  Ph=2 NNew=    0 IAdd=    2 IPass= 1 DotMx2= 3.02D-04
 OrtVCM:  Ph=2 NNew=    0 IAdd=    2 IPass= 2 DotMx2= 2.71D-19
 OrtVCM:  IS=    1 I=    2 IndO=    8 Dot= 8.08D-01 DotN= 8.08D-01 ElMax1= 8.08D-01 ElMax1N= 8.08D-01
 OrtVCM:  Ph=2 NNew=    0 IAdd=    3 IPass= 1 DotMx2= 3.08D-03
 OrtVCM:  Ph=2 NNew=    0 IAdd=    3 IPass= 2 DotMx2= 6.51D-19
 OrtVCM:  IS=    1 I=    3 IndO=    9 Dot= 8.24D-01 DotN= 8.24D-01 ElMax1= 8.24D-01 ElMax1N= 8.24D-01
 OrtVCM:  Ph=2 NNew=    0 IAdd=    4 IPass= 1 DotMx2= 1.84D-01
 OrtVCM:  Ph=2 NNew=    0 IAdd=    4 IPass= 2 DotMx2= 6.62D-17
 OrtVCM:  IS=    1 I=    4 IndO=   10 Dot= 7.47D-01 DotN= 7.47D-01 ElMax1= 7.47D-01 ElMax1N= 7.47D-01
 OrtVCM:  Ph=2 NNew=    0 IAdd=    5 IPass= 1 DotMx2= 2.32D-01
 OrtVCM:  Ph=2 NNew=    0 IAdd=    5 IPass= 2 DotMx2= 2.78D-17
 OrtVCM:  IS=    1 I=    5 IndO=   11 Dot= 5.99D-01 DotN= 5.99D-01 ElMax1= 5.99D-01 ElMax1N= 5.99D-01
 OrtVCM:  Ph=2 NNew=    0 IAdd=    6 IPass= 1 DotMx2= 2.50D-01
 OrtVCM:  Ph=2 NNew=    0 IAdd=    6 IPass= 2 DotMx2= 1.56D-17
 OrtVCM:  IS=    1 I=    6 IndO=   12 Dot= 3.92D-01 DotN= 3.92D-01 ElMax1= 4.78D-01 ElMax1N= 4.78D-01
 OrtVCM:  Ph=2 NNew=    0 IAdd=    7 IPass= 1 DotMx2= 2.91D-01
 OrtVCM:  Ph=2 NNew=    0 IAdd=    7 IPass= 2 DotMx2= 4.16D-17
 OrtVCM:  IS=    1 I=    7 IndO=   13 Dot= 6.63D-01 DotN= 6.63D-01 ElMax1= 6.63D-01 ElMax1N= 6.63D-01
 OrtVCM:  Ph=2 NNew=    0 IAdd=    8 IPass= 1 DotMx2= 3.77D-01
 OrtVCM:  Ph=2 NNew=    0 IAdd=    8 IPass= 2 DotMx2= 3.82D-17
 OrtVCM:  IS=    1 I=    8 IndO=   14 Dot= 5.16D-01 DotN= 5.16D-01 ElMax1= 5.16D-01 ElMax1N= 5.16D-01
 OrtVCM:  Ph=2 NNew=    0 IAdd=    9 IPass= 1 DotMx2= 7.63D-01
 OrtVCM:  Ph=2 NNew=    0 IAdd=    9 IPass= 2 DotMx2= 1.97D-16
 OrtVCM:  IS=    1 I=    9 IndO=    0 Dot= 3.77D-32 DotN= 3.77D-32 ElMax1= 1.40D-16 ElMax1N= 1.40D-16
 SchOr2:  IPass= 1 Test2A= 1.00D-01 IOff=     0 NDo=     9 NNew=     8
 OrtVCM:  Ph=1 IPass= 1 DotMx1= 4.65D-01
 OrtVCM:  Ph=1 IPass= 2 DotMx1= 1.82D-16
 OrtVCM:  IS=    1 I=    1 IndO=   15 Dot= 4.97D-01 DotN= 4.97D-01 ElMax1= 4.97D-01 ElMax1N= 4.97D-01
 SchOr2:  IPass= 1 Test2A= 1.00D-01 IOff=     9 NDo=     1 NNew=     1
 VibFq2-Diag2:  N=      9 IV=           6 MDV=   655346161 NE2=    72816239
 ******    1 imaginary frequencies (negative Signs) ****** 
 Dipole derivatives wrt mode   1: -1.74756D+00  1.80902D-05  4.90948D-03
 Polarizability derivatives wrt mode          1
                 1             2             3 
      1   0.221170D-04  0.000000D+00  0.000000D+00
      2   0.000000D+00 -0.101462D-04  0.000000D+00
      3   0.000000D+00  0.000000D+00 -0.493031D-05
 Vibrational polarizability contributions from mode   1  276396.9094162       0.0000296       2.1814278
 IFr=  0 A012= 0.74D-10 0.56D-08 0.93D-09 Act= 0.66D-08 DepolP= 0.70D+00 DepolU= 0.82D+00
 Dipole derivatives wrt mode   2: -7.43027D-02 -1.58750D-01  6.09170D-03
 Polarizability derivatives wrt mode          2
                 1             2             3 
      1   0.108817D-01 -0.173610D-01 -0.526774D-02
      2  -0.173610D-01 -0.793606D-02  0.338690D-01
      3  -0.526774D-02  0.338690D-01 -0.372975D-02
 Vibrational polarizability contributions from mode   2       0.0039079       0.0178388       0.0000263
 IFr=  0 A012= 0.92D-06 0.28D-01 0.47D-02 Act= 0.33D-01 DepolP= 0.75D+00 DepolU= 0.86D+00
 Dipole derivatives wrt mode   3: -2.38668D-02 -1.37350D-01 -1.35648D-01
 Polarizability derivatives wrt mode          3
                 1             2             3 
      1  -0.546529D-01  0.801190D-02  0.909565D-01
      2   0.801190D-02 -0.630127D-02  0.936466D-02
      3   0.909565D-01  0.936466D-02  0.591224D-01
 Vibrational polarizability contributions from mode   3       0.0003318       0.0109887       0.0107180
 IFr=  0 A012= 0.50D-05 0.21D+00 0.35D-01 Act= 0.25D+00 DepolP= 0.75D+00 DepolU= 0.86D+00
 Dipole derivatives wrt mode   4: -1.30307D+00 -3.31625D-01 -9.36627D-01
 Polarizability derivatives wrt mode          4
                 1             2             3 
      1   0.206891D+00  0.181146D+00  0.338062D-01
      2   0.181146D+00 -0.772798D-01  0.422834D-01
      3   0.338062D-01  0.422834D-01  0.303861D-01
 Vibrational polarizability contributions from mode   4       0.1319933       0.0085490       0.0681947
 IFr=  0 A012= 0.38D-01 0.11D+01 0.18D+00 Act= 0.13D+01 DepolP= 0.63D+00 DepolU= 0.77D+00
 Dipole derivatives wrt mode   5:  9.86288D-01 -2.91479D+00  2.05155D-01
 Polarizability derivatives wrt mode          5
                 1             2             3 
      1   0.164708D+00 -0.138567D+00  0.395429D-01
      2  -0.138567D+00 -0.182197D+00 -0.179665D-01
      3   0.395429D-01 -0.179665D-01  0.993566D-02
 Vibrational polarizability contributions from mode   5       0.0688584       0.6014016       0.0029793
 IFr=  0 A012= 0.86D-04 0.92D+00 0.15D+00 Act= 0.11D+01 DepolP= 0.75D+00 DepolU= 0.86D+00
 Dipole derivatives wrt mode   6:  6.08703D-01  8.37779D-01  6.53748D+00
 Polarizability derivatives wrt mode          6
                 1             2             3 
      1   0.211354D+00  0.851874D-02  0.980776D-01
      2   0.851874D-02  0.220552D+00  0.904864D-03
      3   0.980776D-01  0.904864D-03 -0.111718D+00
 Vibrational polarizability contributions from mode   6       0.0138437       0.0262241       1.5968438
 IFr=  0 A012= 0.15D+00 0.11D+01 0.19D+00 Act= 0.15D+01 DepolP= 0.39D+00 DepolU= 0.56D+00
 Dipole derivatives wrt mode   7: -8.75867D+00 -2.74912D+00  5.63546D+00
 Polarizability derivatives wrt mode          7
                 1             2             3 
      1  -0.481172D+00 -0.649086D-01  0.764454D-01
      2  -0.649086D-01 -0.333039D+00  0.353379D-01
      3   0.764454D-01  0.353379D-01 -0.256924D+00
 Vibrational polarizability contributions from mode   7       2.4290769       0.2393056       1.0055970
 IFr=  0 A012= 0.17D+01 0.39D+01 0.65D+00 Act= 0.62D+01 DepolP= 0.36D-01 DepolU= 0.70D-01
 Dipole derivatives wrt mode   8:  1.50041D+01  8.47375D+00  7.42088D+00
 Polarizability derivatives wrt mode          8
                 1             2             3 
      1   0.826753D-01  0.132382D+00 -0.105813D+00
      2   0.132382D+00 -0.221926D+00 -0.530992D-01
      3  -0.105813D+00 -0.530992D-01 -0.188323D+00
 Vibrational polarizability contributions from mode   8       3.4248507       1.0923725       0.8377798
 IFr=  0 A012= 0.16D+00 0.14D+01 0.23D+00 Act= 0.18D+01 DepolP= 0.43D+00 DepolU= 0.60D+00
 Dipole derivatives wrt mode   9: -9.11211D+00  1.91863D+01 -2.79850D+00
 Polarizability derivatives wrt mode          9
                 1             2             3 
      1   0.262741D-01 -0.231574D-01  0.882266D-01
      2  -0.231574D-01 -0.542097D-01 -0.188536D+00
      3   0.882266D-01 -0.188536D+00  0.586407D-01
 Vibrational polarizability contributions from mode   9       0.9075092       4.0234195       0.0855983
 IFr=  0 A012= 0.14D-02 0.85D+00 0.14D+00 Act= 0.10D+01 DepolP= 0.74D+00 DepolU= 0.85D+00
 Diagonal vibrational polarizability:
   276403.8897882       6.0201294       5.7891650
 Diagonal vibrational hyperpolarizability:
     -373.8384142       4.1121974     -11.7224464
 NorSel:  MapVib=      1      2      3      4      5      6      7      8      9
 Harmonic frequencies (cm**-1), IR intensities (KM/Mole), Raman scattering
 activities (A**4/AMU), depolarization ratios for plane and unpolarized
 incident light, reduced masses (AMU), force constants (mDyne/A),
 and normal coordinates:
                           1         2         3         4         5
                           A         A         A         A         A
       Frequencies ---    -0.5453  194.9830  214.9432  588.3799  616.5832
    Reduced masses ---    18.5913   18.9973   18.9501   18.6618   18.3701
   Force constants ---     0.0000    0.4255    0.5158    3.8064    4.1148
    IR Intensities ---     3.0540    0.0308    0.0378    2.6852    9.5109
  Raman Activities ---     0.0000    0.0331    0.2454    1.3109    1.0774
    Depol. (Plane) ---     0.7018    0.7499    0.7499    0.6306    0.7497
    Depol. (Unpol) ---     0.8248    0.8571    0.8571    0.7735    0.8569
 Coord Atom Element:
   1     1     6         -0.24120  -0.01000   0.07740  -0.17491   0.09788
   2     1     6          0.00000  -0.00738  -0.00683  -0.05153  -0.28258
   3     1     6          0.00067  -0.00089  -0.02927  -0.12185   0.01866
   1     2     9         -0.24120   0.40894  -0.18506   0.11578   0.47591
   2     2     9          0.00000   0.37929   0.08160   0.51967   0.02243
   3     2     9          0.00067  -0.12685   0.57917   0.01974   0.14522
   1     3     9         -0.24120   0.19940   0.19957  -0.50872  -0.28128
   2     3     9          0.00000  -0.48631  -0.06871  -0.28298   0.57801
   3     3     9          0.00067   0.00692  -0.74233  -0.09506  -0.09797
   1     4     9          0.87595  -0.00002   0.00027  -0.00002   0.00001
   2     4     9         -0.00001   0.12984   0.01196  -0.00097  -0.01020
   3     4     9         -0.00245  -0.00866   0.09543  -0.00694   0.00340
   1     5     9         -0.24120  -0.60200  -0.06367   0.50344  -0.25647
   2     5     9          0.00000  -0.01816  -0.02053  -0.20318  -0.41175
   3     5     9          0.00067   0.12915   0.08622   0.15922  -0.06243
                           6         7         8         9
                           A         A         A         A
       Frequencies ---   848.6836  921.9009 1330.0161 1569.1337
    Reduced masses ---    16.3108   13.8356   13.5444   13.2128
   Force constants ---     6.9217    6.9281   14.1164   19.1674
    IR Intensities ---    43.8111  116.0305  351.9982  458.9760
  Raman Activities ---     1.4682    6.2472    1.7846    0.9968
    Depol. (Plane) ---     0.3868    0.0363    0.4280    0.7438
    Depol. (Unpol) ---     0.5579    0.0700    0.5995    0.8531
 Coord Atom Element:
   1     1     6         -0.03199  -0.57190   0.65274  -0.38434
   2     1     6          0.04554  -0.15271   0.38436   0.81394
   3     1     6          0.61720   0.62235   0.45334  -0.12841
   1     2     9          0.34067  -0.06391  -0.23352   0.19482
   2     2     9         -0.28894   0.18858   0.12420  -0.20245
   3     2     9         -0.01333  -0.17359  -0.13619   0.13558
   1     3     9         -0.34956   0.31640  -0.11109   0.02549
   2     3     9         -0.16965   0.11538  -0.06061  -0.05725
   3     3     9         -0.25184  -0.09477  -0.02886   0.01717
   1     4     9          0.00002   0.00000   0.00001  -0.00001
   2     4     9          0.00107  -0.00021   0.00141   0.00317
   3     4     9          0.00619  -0.00099   0.00512  -0.00177
   1     5     9          0.02908   0.10875  -0.06770   0.02245
   2     5     9          0.42876  -0.20729  -0.30778  -0.25758
   3     5     9         -0.13086  -0.12375  -0.12641  -0.06986
 Harmonic frequencies (cm**-1), IR intensities (KM/Mole), Raman scattering
 activities (A**4/AMU), depolarization ratios for plane and unpolarized
 incident light, reduced masses (AMU), force constants (mDyne/A),
 and normal coordinates:
                      1                      2                      3
                      A                      A                      A
 Frequencies --     -0.5453               194.9830               214.9432
 Red. masses --     18.5913                18.9973                18.9501
 Frc consts  --      0.0000                 0.4255                 0.5158
 IR Inten    --      3.0540                 0.0308                 0.0378
 Raman Activ --      0.0000                 0.0331                 0.2454
 Depolar (P) --      0.7018                 0.7499                 0.7499
 Depolar (U) --      0.8248                 0.8571                 0.8571
  Atom  AN      X      Y      Z        X      Y      Z        X      Y      Z
     1   6    -0.24   0.00   0.00    -0.01  -0.01   0.00     0.08  -0.01  -0.03
     2   9    -0.24   0.00   0.00     0.41   0.38  -0.13    -0.19   0.08   0.58
     3   9    -0.24   0.00   0.00     0.20  -0.49   0.01     0.20  -0.07  -0.74
     4   9     0.88   0.00   0.00     0.00   0.13  -0.01     0.00   0.01   0.10
     5   9    -0.24   0.00   0.00    -0.60  -0.02   0.13    -0.06  -0.02   0.09
                      4                      5                      6
                      A                      A                      A
 Frequencies --    588.3799               616.5832               848.6836
 Red. masses --     18.6618                18.3701                16.3108
 Frc consts  --      3.8064                 4.1148                 6.9217
 IR Inten    --      2.6852                 9.5109                43.8111
 Raman Activ --      1.3109                 1.0774                 1.4682
 Depolar (P) --      0.6306                 0.7497                 0.3868
 Depolar (U) --      0.7735                 0.8569                 0.5579
  Atom  AN      X      Y      Z        X      Y      Z        X      Y      Z
     1   6    -0.17  -0.05  -0.12     0.10  -0.28   0.02    -0.03   0.05   0.62
     2   9     0.12   0.52   0.02     0.48   0.02   0.15     0.34  -0.29  -0.01
     3   9    -0.51  -0.28  -0.10    -0.28   0.58  -0.10    -0.35  -0.17  -0.25
     4   9     0.00   0.00  -0.01     0.00  -0.01   0.00     0.00   0.00   0.01
     5   9     0.50  -0.20   0.16    -0.26  -0.41  -0.06     0.03   0.43  -0.13
                      7                      8                      9
                      A                      A                      A
 Frequencies --    921.9009              1330.0161              1569.1337
 Red. masses --     13.8356                13.5444                13.2128
 Frc consts  --      6.9281                14.1164                19.1674
 IR Inten    --    116.0305               351.9982               458.9760
 Raman Activ --      6.2472                 1.7846                 0.9968
 Depolar (P) --      0.0363                 0.4280                 0.7438
 Depolar (U) --      0.0700                 0.5995                 0.8531
  Atom  AN      X      Y      Z        X      Y      Z        X      Y      Z
     1   6    -0.57  -0.15   0.62     0.65   0.38   0.45    -0.38   0.81  -0.13
     2   9    -0.06   0.19  -0.17    -0.23   0.12  -0.14     0.19  -0.20   0.14
     3   9     0.32   0.12  -0.09    -0.11  -0.06  -0.03     0.03  -0.06   0.02
     4   9     0.00   0.00   0.00     0.00   0.00   0.01     0.00   0.00   0.00
     5   9     0.11  -0.21  -0.12    -0.07  -0.31  -0.13     0.02  -0.26  -0.07

 -------------------
 - Thermochemistry -
 -------------------
 Temperature   298.150 Kelvin.  Pressure   1.00000 Atm.
 Atom     1 has atomic number  6 and mass  12.00000
 Atom     2 has atomic number  9 and mass  18.99840
 Atom     3 has atomic number  9 and mass  18.99840
 Atom     4 has atomic number  9 and mass  18.99840
 Atom     5 has atomic number  9 and mass  18.99840
 Molecular mass:    87.99361 amu.
 Principal axes and moments of inertia in atomic units:
                           1         2         3
     Eigenvalues --   175.33524********************
           X            1.00000   0.00002  -0.00016
           Y           -0.00002   1.00000  -0.00010
           Z            0.00016   0.00010   1.00000
 This molecule is an asymmetric top.
 Rotational symmetry number  1.
 Rotational temperatures (Kelvin)      0.49399     0.00643     0.00636
 Rotational constants (GHZ):          10.29309     0.13390     0.13247
    1 imaginary frequencies ignored.
 Zero-point vibrational energy      37590.4 (Joules/Mol)
                                    8.98432 (Kcal/Mol)
 Warning -- explicit consideration of   4 degrees of freedom as
           vibrations may cause significant error
 Vibrational temperatures:    280.54   309.25   846.55   887.12  1221.06
          (Kelvin)           1326.41  1913.59  2257.63
 
 Zero-point correction=                           0.014317 (Hartree/Particle)
 Thermal correction to Energy=                    0.018703
 Thermal correction to Enthalpy=                  0.019647
 Thermal correction to Gibbs Free Energy=        -0.017396
 Sum of electronic and zero-point Energies=           -435.087876
 Sum of electronic and thermal Energies=              -435.083491
 Sum of electronic and thermal Enthalpies=            -435.082547
 Sum of electronic and thermal Free Energies=         -435.119589
 
                     E (Thermal)             CV                S
                      KCal/Mol        Cal/Mol-Kelvin    Cal/Mol-Kelvin
 Total                   11.736             12.917             77.963
 Electronic               0.000              0.000              1.377
 Translational            0.889              2.981             39.337
 Rotational               0.889              2.981             31.843
 Vibrational              9.959              6.956              5.405
 Vibration     1          0.636              1.847              2.180
 Vibration     2          0.645              1.818              2.001
 Vibration     3          0.946              1.057              0.470
 Vibration     4          0.976              0.997              0.422
                       Q            Log10(Q)             Ln(Q)
 Total Bot       0.100351D+09          8.001521         18.424184
 Total V=0       0.386426D+15         14.587066         33.587961
 Vib (Bot)       0.761399D-06         -6.118388        -14.088108
 Vib (Bot)    1  0.102457D+01          0.010541          0.024271
 Vib (Bot)    2  0.922192D+00         -0.035179         -0.081002
 Vib (Bot)    3  0.256809D+00         -0.590389         -1.359422
 Vib (Bot)    4  0.238034D+00         -0.623361         -1.435342
 Vib (V=0)       0.293195D+01          0.467157          1.075669
 Vib (V=0)    1  0.164006D+01          0.214860          0.494734
 Vib (V=0)    2  0.154902D+01          0.190056          0.437621
 Vib (V=0)    3  0.106210D+01          0.026163          0.060244
 Vib (V=0)    4  0.105377D+01          0.022745          0.052373
 Electronic      0.200000D+01          0.301030          0.693147
 Translational   0.324438D+08          7.511132         17.295020
 Rotational      0.203117D+07          6.307747         14.524125
 
                                                          Distorted Ethanol
                                                             IR Spectrum
 
     1                   1                                                                                                           
     5                   3                                9     8                  6 5                             2 1               
     6                   3                                2     4                  1 8                             1 9               
     9                   0                                2     9                  7 8                             5 5               
 
     X                   X                                X     X                  X X                                               
     X                   X                                X     X                                                                    
     X                   X                                X                                                                          
     X                   X                                X                                                                          
     X                   X                                X                                                                          
     X                   X                                                                                                           
     X                   X                                                                                                           
     X                   X                                                                                                           
     X                   X                                                                                                           
     X                   X                                                                                                           
     X                   X                                                                                                           
     X                   X                                                                                                           
     X                   X                                                                                                           
     X                   X                                                                                                           
     X                   X                                                                                                           
     X                                                                                                                               
     X                                                                                                                               
     X                                                                                                                               
     X                                                                                                                               
     X                                                                                                                               
 
 
                                                          Distorted Ethanol
                                                            Raman Spectrum
 
     1                   1                                                                                                           
     5                   3                                9     8                  6 5                             2 1               
     6                   3                                2     4                  1 8                             1 9               
     9                   0                                2     9                  7 8                             5 5               
 
     X                   X                                X     X                  X X                             X                 
     X                   X                                X     X                  X X                                               
     X                   X                                X     X                  X X                                               
                         X                                X     X                    X                                               
                         X                                X     X                                                                    
                         X                                X                                                                          
                                                          X                                                                          
                                                          X                                                                          
                                                          X                                                                          
                                                          X                                                                          
                                                          X                                                                          
                                                          X                                                                          
                                                          X                                                                          
                                                          X                                                                          
                                                          X                                                                          
                                                          X                                                                          
                                                          X                                                                          
                                                          X                                                                          
                                                          X                                                                          
                                                          X                                                                          
 
 Forces in standard orientation:
 -------------------------------------------------------------------
 Center     Atomic                   Forces (Hartrees/Bohr)
 Number     Number              X              Y              Z
 -------------------------------------------------------------------
      1        6           0.129315335    0.031225562   -0.166449593
      2        9           0.004280098   -0.037333087    0.064416233
      3        9          -0.107675860   -0.042428835    0.044709736
      4        9          -0.000001242   -0.000000017   -0.000000004
      5        9          -0.025918331    0.048536378    0.057323628
 -------------------------------------------------------------------
 ***** Axes restored to original set *****
 Rotating derivatives, DoTrsp=F IDiff=-2 LEDeriv=    772 LFDPrp=       0 LDFDPr=       0.
 -------------------------------------------------------------------
 Center     Atomic                   Forces (Hartrees/Bohr)
 Number     Number              X              Y              Z
 -------------------------------------------------------------------
      1        6          -0.157154481    0.018906361    0.142646337
      2        9           0.017952261   -0.049114418   -0.053169727
      3        9           0.061760258    0.046249212   -0.097159344
      4        9           0.000000645    0.000000917   -0.000000536
      5        9           0.077441316   -0.016042072    0.007683271
 -------------------------------------------------------------------
 Cartesian Forces:  Max     0.157154481 RMS     0.069604255
 Z-matrix is all fixed cartesians, so copy forces.
 Force constants in Cartesian coordinates: 
                1             2             3             4             5 
      1  0.537400D+00
      2  0.123101D+00  0.638421D+00
      3  0.240368D+00  0.360906D-01  0.586823D+00
      4 -0.161381D+00 -0.118173D+00 -0.613928D-01  0.178493D+00
      5 -0.140700D+00 -0.358841D+00 -0.101288D+00  0.199824D+00  0.418808D+00
      6 -0.739131D-01 -0.113848D+00 -0.161136D+00  0.100637D+00  0.122766D+00
      7 -0.114597D+00 -0.237946D-01  0.855465D-02  0.699668D-02 -0.379145D-01
      8 -0.195901D-02 -0.159644D+00  0.269887D-01 -0.470856D-01 -0.679668D-01
      9 -0.596054D-02  0.498267D-01 -0.148015D+00  0.101992D-01  0.758005D-02
     10  0.000000D+00  0.000000D+00  0.000000D+00  0.000000D+00  0.000000D+00
     11  0.000000D+00  0.000000D+00  0.000000D+00  0.000000D+00  0.000000D+00
     12  0.000000D+00  0.000000D+00  0.000000D+00  0.000000D+00  0.000000D+00
     13 -0.261422D+00  0.188663D-01 -0.187529D+00 -0.241088D-01 -0.212091D-01
     14  0.195579D-01 -0.119935D+00  0.382091D-01 -0.345649D-01  0.800052D-02
     15 -0.160494D+00  0.279308D-01 -0.277672D+00 -0.494433D-01 -0.290582D-01
                6             7             8             9            10 
      6  0.162341D+00
      7  0.146045D-01  0.956054D-01
      8  0.282329D-01  0.415693D-01  0.223779D+00
      9  0.178461D-01  0.914347D-02 -0.100444D+00  0.185498D+00
     10  0.000000D+00  0.000000D+00  0.000000D+00  0.000000D+00  0.000000D+00
     11  0.000000D+00  0.000000D+00  0.000000D+00  0.000000D+00  0.000000D+00
     12  0.000000D+00  0.000000D+00  0.000000D+00  0.000000D+00  0.000000D+00
     13 -0.413284D-01  0.119951D-01  0.747551D-02 -0.133822D-01  0.000000D+00
     14 -0.371515D-01  0.201398D-01  0.383182D-02  0.430374D-01  0.000000D+00
     15 -0.190509D-01 -0.323027D-01  0.452225D-01 -0.553291D-01  0.000000D+00
               11            12            13            14            15 
     11  0.000000D+00
     12  0.000000D+00  0.000000D+00
     13  0.000000D+00  0.000000D+00  0.273535D+00
     14  0.000000D+00  0.000000D+00 -0.513271D-02  0.108103D+00
     15  0.000000D+00  0.000000D+00  0.242240D+00 -0.440950D-01  0.352052D+00
 Final forces over variables, Energy=-4.35102193D+02:
 -1.57154481D-01 1.79522612D-02 6.17602583D-02 6.44501931D-07
  7.74413165D-02 1.89063612D-02-4.91144181D-02 4.62492125D-02
  9.16531835D-07-1.60420721D-02 1.42646337D-01-5.31697273D-02
 -9.71593439D-02-5.36004536D-07 7.68327071D-03
 Leave Link  716 at Sat Mar  4 13:45:07 2017, MaxMem=   655360000 cpu:         0.2
 (Enter /mnt/software/gaussian/g09/l103.exe)

 GradGradGradGradGradGradGradGradGradGradGradGradGradGradGradGradGradGrad
 Berny optimization.
 Search for a local minimum.
 Step number   1 out of a maximum of    2
 All quantities printed in internal units (Hartrees-Bohrs-Radians)
 Second derivative matrix not updated -- analytic derivatives used.
 The second derivative matrix:
                          X1        Y1        Z1        X2        Y2
           X1           0.53740
           Y1           0.12310   0.63842
           Z1           0.24037   0.03609   0.58682
           X2          -0.16138  -0.11817  -0.06139   0.17849
           Y2          -0.14070  -0.35884  -0.10129   0.19982   0.41881
           Z2          -0.07391  -0.11385  -0.16114   0.10064   0.12277
           X3          -0.11460  -0.02379   0.00855   0.00700  -0.03791
           Y3          -0.00196  -0.15964   0.02699  -0.04709  -0.06797
           Z3          -0.00596   0.04983  -0.14801   0.01020   0.00758
           X4           0.00000   0.00000   0.00000   0.00000   0.00000
           Y4           0.00000   0.00000   0.00000   0.00000   0.00000
           Z4           0.00000   0.00000   0.00000   0.00000   0.00000
           X5          -0.26142   0.01887  -0.18753  -0.02411  -0.02121
           Y5           0.01956  -0.11994   0.03821  -0.03456   0.00800
           Z5          -0.16049   0.02793  -0.27767  -0.04944  -0.02906
                          Z2        X3        Y3        Z3        X4
           Z2           0.16234
           X3           0.01460   0.09561
           Y3           0.02823   0.04157   0.22378
           Z3           0.01785   0.00914  -0.10044   0.18550
           X4           0.00000   0.00000   0.00000   0.00000   0.00000
           Y4           0.00000   0.00000   0.00000   0.00000   0.00000
           Z4           0.00000   0.00000   0.00000   0.00000   0.00000
           X5          -0.04133   0.01200   0.00748  -0.01338   0.00000
           Y5          -0.03715   0.02014   0.00383   0.04304   0.00000
           Z5          -0.01905  -0.03230   0.04522  -0.05533   0.00000
                          Y4        Z4        X5        Y5        Z5
           Y4           0.00000
           Z4           0.00000   0.00000
           X5           0.00000   0.00000   0.27354
           Y5           0.00000   0.00000  -0.00513   0.10810
           Z5           0.00000   0.00000   0.24224  -0.04409   0.35205
 ITU=  0
     Eigenvalues ---    0.00000   0.02734   0.03315   0.24415   0.26396
     Eigenvalues ---    0.39683   0.51659   0.95874   1.27323
 Eigenvalue     1 is  -2.09D-07 should be greater than     0.000000 Eigenvector:
                          Y4        X4        Z4        Y1        Y3
   1                    0.65033   0.47059  -0.37438  -0.17040  -0.17040
                          Y2        Y5        X1        X2        X5
   1                   -0.17040  -0.17040  -0.12331  -0.12331  -0.12331
 Quadratic step=7.225D+00 exceeds max=3.000D-01 adjusted using Lamda=-4.538D-01.
 Angle between NR and scaled steps=  85.08 degrees.
 Angle between quadratic step and forces=   6.18 degrees.
 Linear search not attempted -- first point.
 TrRot=  0.005695 -0.001162 -0.005407 -1.787457 -0.000191  1.787219
 MatCor failed.
 Variable       Old X    -DE/DX   Delta X   Delta X   Delta X     New X
                                 (Linear)    (Quad)   (Total)
    X1        2.56910  -0.15715   0.00000  -0.18577  -0.17804   2.39105
    Y1        9.01627   0.01891   0.00000   0.02606   0.02382   9.04008
    Z1       -2.96714   0.14265   0.00000   0.17034   0.16315  -2.80399
    X2        3.51827   0.01795   0.00000   0.02355   0.03176   3.55003
    Y2       10.96184  -0.04911   0.00000  -0.04400  -0.04639  10.91545
    Z2       -1.99211  -0.05317   0.00000  -0.04565  -0.05323  -2.04535
    X3        1.89627   0.06176   0.00000   0.06108   0.06847   1.96474
    Y3        7.33020   0.04625   0.00000   0.04816   0.04629   7.37649
    Z3       -1.15702  -0.09716   0.00000  -0.09976  -0.10662  -1.26364
    X4      -13.69847   0.00000   0.00000  -0.00318  -0.00012 -13.69859
    Y4      -12.81316   0.00000   0.00000  -0.00413  -0.00018 -12.81334
    Z4        9.97375   0.00000   0.00000   0.00249   0.00003   9.97378
    X5        0.85854   0.07744   0.00000   0.07023   0.07793   0.93648
    Y5        9.26045  -0.01604   0.00000  -0.02130  -0.02355   9.23690
    Z5       -4.61401   0.00768   0.00000   0.00383  -0.00333  -4.61734
         Item               Value     Threshold  Converged?
 Maximum Force            0.157154     0.000450     NO 
 RMS     Force            0.069604     0.000300     NO 
 Maximum Displacement     0.178043     0.001800     NO 
 RMS     Displacement     0.077338     0.001200     NO 
 Predicted change in Energy=-6.072174D-02
 GradGradGradGradGradGradGradGradGradGradGradGradGradGradGradGradGradGrad

 Leave Link  103 at Sat Mar  4 13:45:07 2017, MaxMem=   655360000 cpu:         0.1
 (Enter /mnt/software/gaussian/g09/l9999.exe)

 Test job not archived.
 1\1\GINC-TP-LINUX1\Freq\UHF\6-31G(d)\C1F4(1+,2)\THOMAS\04-Mar-2017\0\\
 #P UHF/6-31g* IOP(7/33=1) IOP(7/8=11) Freq\\Distorted Ethanol\\1,2\C,1
 .359507,4.771204,-1.570143\F,1.86179,5.800757,-1.054181\F,1.003461,3.8
 78974,-0.612268\F,-7.248916,-6.780434,5.277883\F,0.454322,4.900417,-2.
 44163\\Version=ES64L-G09RevD.01\State=2-A\HF=-435.1021935\S2=0.752673\
 S2-1=0.\S2A=0.750003\RMSD=7.232e-09\RMSF=6.960e-02\ZeroPoint=0.0143174
 \Thermal=0.0187026\Dipole=3.9276766,4.6291748,-3.1871593\DipoleDeriv=1
 .6886667,0.32242,0.4452378,0.3510218,2.0649446,-0.1715245,0.429369,-0.
 142641,1.9927834,-0.2084516,-0.1499258,-0.0949306,-0.3148519,-0.518880
 2,-0.0628783,-0.1877376,-0.1346338,-0.2280477,-0.1621246,-0.1427674,0.
 0364596,-0.0313625,-0.351746,0.1155848,-0.0359478,0.2374358,-0.333317,
 0.0000104,-0.0000667,0.0000392,-0.0000694,-0.0000334,0.0000545,0.00004
 ,0.0000537,0.0000248,-0.3181009,-0.0296601,-0.386806,-0.0047381,-0.194
 285,0.1187635,-0.2057236,0.0397853,-0.4314435\Polar=11.5279556,1.45457
 4,12.8557225,1.3766313,-1.0273499,13.0781076\PolarDeriv=3.6979996,-0.2
 309895,1.0109675,-0.5936727,-0.7032515,1.7926321,-0.5127224,1.0905176,
 -1.554965,-0.5362627,-1.704692,-0.0983685,-0.3845251,-0.7074908,-1.559
 3055,1.7252488,0.160014,-3.2528202,1.3892079,1.5495262,0.8495759,0.963
 2595,0.3602425,0.3063579,0.9518475,1.2735433,4.6996408,0.2304634,0.861
 6993,1.1010859,0.7135138,0.2189332,0.7888772,0.9537944,1.5718094,2.018
 6191,-1.4173601,-1.427742,-0.8682753,1.4287692,0.2327175,-0.5658247,-0
 .5514475,-1.144952,-3.7036946,0.3475206,2.2494957,-1.5271154,0.8114489
 ,0.3872694,1.4030404,-0.6634302,-2.2201534,4.5770428,0.0000005,0.00003
 09,0.0000951,-0.0000622,-0.0000973,0.000004,0.0000023,0.0001062,0.0000
 495,-0.0001067,-0.0001172,-0.0000018,-0.0000456,-0.0001038,-0.0001115,
 0.0000062,-0.0000205,0.0001291,-3.6698478,0.1091743,-0.9923632,-1.7982
 938,0.1103888,-1.5331693,0.11232,-1.2192151,0.5589693,-0.0416147,-1.40
 63858,0.5243998,-1.140392,0.101392,-0.6325007,-2.0156191,0.4883505,-3.
 3429708\HyperPolar=13.7290348,-0.9387175,0.6722698,-7.8166997,1.184952
 6,-4.9112861,-7.8047131,7.7878992,0.6121984,-9.8126096\PG=C01 [X(C1F4)
 ]\NImag=1\\0.53740001,0.12310117,0.63842069,0.24036794,0.03609059,0.58
 682298,-0.16138123,-0.11817338,-0.06139283,0.17849347,-0.14070006,-0.3
 5884138,-0.10128833,0.19982386,0.41880764,-0.07391306,-0.11384793,-0.1
 6113584,0.10063694,0.12276647,0.16234064,-0.11459716,-0.02379461,0.008
 55465,0.00699668,-0.03791449,0.01460452,0.09560544,-0.00195901,-0.1596
 4385,0.02698867,-0.04708561,-0.06796678,0.02823295,0.04156926,0.223778
 76,-0.00596054,0.04982671,-0.14801470,0.01019915,0.00758005,0.01784610
 ,0.00914347,-0.10044412,0.18549768,0.00000016,0.00000049,-0.00000031,-
 0.00000012,-0.00000016,0.,-0.00000007,-0.00000016,0.00000015,0.0000000
 3,0.00000004,0.,0.00000001,0.00000005,0.,-0.00000001,0.,0.00000005,-0.
 00000003,-0.00000011,-0.00000005,-0.00000010,-0.00000016,0.,0.00000002
 ,0.00000005,0.00000001,0.00000002,0.00000002,-0.00000002,0.00000005,0.
 00000007,0.,-0.26142178,0.01886633,-0.18752944,-0.02410879,-0.02120915
 ,-0.04132842,0.01199511,0.00747551,-0.01338223,0.,0.00000001,0.0000000
 2,0.27353546,0.01955786,-0.11993546,0.03820905,-0.03456492,0.00800052,
 -0.03715148,0.02013983,0.00383182,0.04303739,-0.00000006,0.,0.00000001
 ,-0.00513271,0.10810312,-0.16049424,0.02793078,-0.27767244,-0.04944329
 ,-0.02905824,-0.01905091,-0.03230266,0.04522248,-0.05532905,0.00000012
 ,-0.00000004,0.,0.24224008,-0.04409498,0.35205240\\0.15715448,-0.01890
 636,-0.14264634,-0.01795226,0.04911442,0.05316973,-0.06176026,-0.04624
 921,0.09715934,-0.00000064,-0.00000092,0.00000054,-0.07744132,0.016042
 07,-0.00768327\\\@


 I CLAIM NOT TO HAVE CONTROLLED EVENTS,
 BUT CONFESS PLAINLY THAT EVENTS HAVE CONTROLLED ME.

                                         A. LINCOLN
 Job cpu time:       0 days  0 hours  0 minutes 21.6 seconds.
 File lengths (MBytes):  RWF=     12 Int=      0 D2E=      0 Chk=      2 Scr=      1
 Normal termination of Gaussian 09 at Sat Mar  4 13:45:07 2017.
