 Entering Gaussian System, Link 0=g09
 Input=/home/thomas/cf4/DD-vMCG/dd_data/gwp10_V1_dd_data.com
 Output=/home/thomas/cf4/DD-vMCG/dd_data/gwp10_V1_dd_data.log
 Initial command:
 /mnt/software/gaussian/g09/l1.exe "/scratch/Gau-944.inp" -scrdir="/scratch/"
 Entering Link 1 = /mnt/software/gaussian/g09/l1.exe PID=       947.
  
 Copyright (c) 1988,1990,1992,1993,1995,1998,2003,2009,2013,
            Gaussian, Inc.  All Rights Reserved.
  
 This is part of the Gaussian(R) 09 program.  It is based on
 the Gaussian(R) 03 system (copyright 2003, Gaussian, Inc.),
 the Gaussian(R) 98 system (copyright 1998, Gaussian, Inc.),
 the Gaussian(R) 94 system (copyright 1995, Gaussian, Inc.),
 the Gaussian 92(TM) system (copyright 1992, Gaussian, Inc.),
 the Gaussian 90(TM) system (copyright 1990, Gaussian, Inc.),
 the Gaussian 88(TM) system (copyright 1988, Gaussian, Inc.),
 the Gaussian 86(TM) system (copyright 1986, Carnegie Mellon
 University), and the Gaussian 82(TM) system (copyright 1983,
 Carnegie Mellon University). Gaussian is a federally registered
 trademark of Gaussian, Inc.
  
 This software contains proprietary and confidential information,
 including trade secrets, belonging to Gaussian, Inc.
  
 This software is provided under written license and may be
 used, copied, transmitted, or stored only in accord with that
 written license.
  
 The following legend is applicable only to US Government
 contracts under FAR:
  
                    RESTRICTED RIGHTS LEGEND
  
 Use, reproduction and disclosure by the US Government is
 subject to restrictions as set forth in subparagraphs (a)
 and (c) of the Commercial Computer Software - Restricted
 Rights clause in FAR 52.227-19.
  
 Gaussian, Inc.
 340 Quinnipiac St., Bldg. 40, Wallingford CT 06492
  
  
 ---------------------------------------------------------------
 Warning -- This program may not be used in any manner that
 competes with the business of Gaussian, Inc. or will provide
 assistance to any competitor of Gaussian, Inc.  The licensee
 of this program is prohibited from giving any competitor of
 Gaussian, Inc. access to this program.  By using this program,
 the user acknowledges that Gaussian, Inc. is engaged in the
 business of creating and licensing software in the field of
 computational chemistry and represents and warrants to the
 licensee that it is not a competitor of Gaussian, Inc. and that
 it will not use this program in any manner prohibited above.
 ---------------------------------------------------------------
  

 Cite this work as:
 Gaussian 09, Revision D.01,
 M. J. Frisch, G. W. Trucks, H. B. Schlegel, G. E. Scuseria, 
 M. A. Robb, J. R. Cheeseman, G. Scalmani, V. Barone, B. Mennucci, 
 G. A. Petersson, H. Nakatsuji, M. Caricato, X. Li, H. P. Hratchian, 
 A. F. Izmaylov, J. Bloino, G. Zheng, J. L. Sonnenberg, M. Hada, 
 M. Ehara, K. Toyota, R. Fukuda, J. Hasegawa, M. Ishida, T. Nakajima, 
 Y. Honda, O. Kitao, H. Nakai, T. Vreven, J. A. Montgomery, Jr., 
 J. E. Peralta, F. Ogliaro, M. Bearpark, J. J. Heyd, E. Brothers, 
 K. N. Kudin, V. N. Staroverov, T. Keith, R. Kobayashi, J. Normand, 
 K. Raghavachari, A. Rendell, J. C. Burant, S. S. Iyengar, J. Tomasi, 
 M. Cossi, N. Rega, J. M. Millam, M. Klene, J. E. Knox, J. B. Cross, 
 V. Bakken, C. Adamo, J. Jaramillo, R. Gomperts, R. E. Stratmann, 
 O. Yazyev, A. J. Austin, R. Cammi, C. Pomelli, J. W. Ochterski, 
 R. L. Martin, K. Morokuma, V. G. Zakrzewski, G. A. Voth, 
 P. Salvador, J. J. Dannenberg, S. Dapprich, A. D. Daniels, 
 O. Farkas, J. B. Foresman, J. V. Ortiz, J. Cioslowski, 
 and D. J. Fox, Gaussian, Inc., Wallingford CT, 2013.
 
 ******************************************
 Gaussian 09:  ES64L-G09RevD.01 24-Apr-2013
                 4-Mar-2017 
 ******************************************
 %mem=5000MB
 %Nprocshared=6
 Will use up to    6 processors via shared memory.
 %chk=gwp10_V1_dd_data.chk
 ------------------------------------------
 #P UHF/6-31g* IOP(7/33=1) IOP(7/8=11) Freq
 ------------------------------------------
 1/10=4,30=1,38=1/1,3;
 2/12=2,17=6,18=5,40=1/2;
 3/5=1,6=6,7=1,11=2,16=1,25=1,30=1,71=2,116=2,140=1/1,2,3;
 4//1;
 5/5=2,38=5,98=1/2;
 8/6=4,10=90,11=11/1;
 10/13=10,15=4/2;
 11/6=3,8=1,9=11,15=111,16=1/1,2,10;
 10/6=1/2;
 6/7=2,8=2,9=2,10=2,18=1,28=1/1;
 7/8=11,10=1,25=1,33=1/1,2,3,16;
 1/10=4,30=1/3;
 99//99;
 Leave Link    1 at Sat Mar  4 13:45:48 2017, MaxMem=   655360000 cpu:         0.2
 (Enter /mnt/software/gaussian/g09/l101.exe)
 -----------------
 Distorted Ethanol
 -----------------
 Symbolic Z-matrix:
 Charge =  1 Multiplicity = 2
 6                    -0.26261   5.18595  -0.82947 
 9                     0.47676   4.2303   -0.36502 
 9                     0.16379   6.31327  -0.50982 
 9                    -3.03279  -7.78467   3.64531 
 9                    -0.41333   5.06132  -2.02352 
 
 NAtoms=      5 NQM=        5 NQMF=       0 NMMI=      0 NMMIF=      0
                NMic=       0 NMicF=      0.
                    Isotopes and Nuclear Properties:
 (Nuclear quadrupole moments (NQMom) in fm**2, nuclear magnetic moments (NMagM)
  in nuclear magnetons)

  Atom         1           2           3           4           5
 IAtWgt=          12          19          19          19          19
 AtmWgt=  12.0000000  18.9984033  18.9984033  18.9984033  18.9984033
 NucSpn=           0           1           1           1           1
 AtZEff=   0.0000000   0.0000000   0.0000000   0.0000000   0.0000000
 NQMom=    0.0000000   0.0000000   0.0000000   0.0000000   0.0000000
 NMagM=    0.0000000   2.6288670   2.6288670   2.6288670   2.6288670
 AtZNuc=   6.0000000   9.0000000   9.0000000   9.0000000   9.0000000
 Leave Link  101 at Sat Mar  4 13:45:48 2017, MaxMem=   655360000 cpu:         0.4
 (Enter /mnt/software/gaussian/g09/l103.exe)

 GradGradGradGradGradGradGradGradGradGradGradGradGradGradGradGradGradGrad
 Berny optimization.
 Initialization pass.
 Trust Radius=3.00D-01 FncErr=1.00D-07 GrdErr=1.00D-07
 Number of steps in this run=      2 maximum allowed number of steps=      2.
 GradGradGradGradGradGradGradGradGradGradGradGradGradGradGradGradGradGrad

 Leave Link  103 at Sat Mar  4 13:45:48 2017, MaxMem=   655360000 cpu:         0.1
 (Enter /mnt/software/gaussian/g09/l202.exe)
                          Input orientation:                          
 ---------------------------------------------------------------------
 Center     Atomic      Atomic             Coordinates (Angstroms)
 Number     Number       Type             X           Y           Z
 ---------------------------------------------------------------------
      1          6           0       -0.262606    5.185948   -0.829470
      2          9           0        0.476756    4.230303   -0.365017
      3          9           0        0.163794    6.313275   -0.509818
      4          9           0       -3.032788   -7.784671    3.645309
      5          9           0       -0.413333    5.061316   -2.023525
 ---------------------------------------------------------------------
                    Distance matrix (angstroms):
                    1          2          3          4          5
     1  C    0.000000
     2  F    1.294461   0.000000
     3  F    1.246940   2.111323   0.000000
     4  F   13.997661  13.143790  15.041120   0.000000
     5  F    1.209967   2.057545   2.047385  14.283438   0.000000
 Stoichiometry    CF4(1+,2)
 Framework group  C1[X(CF4)]
 Deg. of freedom     9
 Full point group                 C1      NOp   1
 Largest Abelian subgroup         C1      NOp   1
 Largest concise Abelian subgroup C1      NOp   1
                         Standard orientation:                         
 ---------------------------------------------------------------------
 Center     Atomic      Atomic             Coordinates (Angstroms)
 Number     Number       Type             X           Y           Z
 ---------------------------------------------------------------------
      1          6           0       -2.915502    0.014263   -0.262722
      2          9           0       -2.040070   -0.484312    0.550095
      3          9           0       -3.941981   -0.689071   -0.343488
      4          9           0       11.080671   -0.000326   -0.059125
      5          9           0       -3.154952    1.164201    0.027666
 ---------------------------------------------------------------------
 Rotational constants (GHZ):     10.5006148      0.1680731      0.1663947
 Leave Link  202 at Sat Mar  4 13:45:48 2017, MaxMem=   655360000 cpu:         0.0
 (Enter /mnt/software/gaussian/g09/l301.exe)
 Standard basis: 6-31G(d) (6D, 7F)
 Ernie: Thresh=  0.10000D-02 Tol=  0.10000D-05 Strict=F.
 There are    75 symmetry adapted cartesian basis functions of A   symmetry.
 There are    75 symmetry adapted basis functions of A   symmetry.
    75 basis functions,   140 primitive gaussians,    75 cartesian basis functions
    21 alpha electrons       20 beta electrons
       nuclear repulsion energy       141.8314506275 Hartrees.
 IExCor=    0 DFT=F Ex=HF Corr=None ExCW=0 ScaHFX=  1.000000
 ScaDFX=  1.000000  1.000000  1.000000  1.000000 ScalE2=  1.000000  1.000000
 IRadAn=      0 IRanWt=     -1 IRanGd=            0 ICorTp=0 IEmpDi=  4
 NAtoms=    5 NActive=    5 NUniq=    5 SFac= 1.00D+00 NAtFMM=   60 NAOKFM=F Big=F
 Integral buffers will be    131072 words long.
 Raffenetti 2 integral format.
 Two-electron integral symmetry is turned on.
 Leave Link  301 at Sat Mar  4 13:45:49 2017, MaxMem=   655360000 cpu:         0.3
 (Enter /mnt/software/gaussian/g09/l302.exe)
 NPDir=0 NMtPBC=     1 NCelOv=     1 NCel=       1 NClECP=     1 NCelD=      1
         NCelK=      1 NCelE2=     1 NClLst=     1 CellRange=     0.0.
 One-electron integrals computed using PRISM.
 NBasis=    75 RedAO= T EigKep=  2.99D-03  NBF=    75
 NBsUse=    75 1.00D-06 EigRej= -1.00D+00 NBFU=    75
 Leave Link  302 at Sat Mar  4 13:45:49 2017, MaxMem=   655360000 cpu:         0.8
 (Enter /mnt/software/gaussian/g09/l303.exe)
 DipDrv:  MaxL=1.
 Leave Link  303 at Sat Mar  4 13:45:49 2017, MaxMem=   655360000 cpu:         0.1
 (Enter /mnt/software/gaussian/g09/l401.exe)
 ExpMin= 1.69D-01 ExpMax= 7.00D+03 ExpMxC= 1.05D+03 IAcc=1 IRadAn=         1 AccDes= 0.00D+00
 Harris functional with IExCor=  205 and IRadAn=       1 diagonalized for initial guess.
 HarFok:  IExCor=  205 AccDes= 0.00D+00 IRadAn=         1 IDoV= 1 UseB2=F ITyADJ=14
 ICtDFT=  3500011 ScaDFX=  1.000000  1.000000  1.000000  1.000000
 FoFCou: FMM=F IPFlag=           0 FMFlag=      100000 FMFlg1=           0
         NFxFlg=           0 DoJE=T BraDBF=F KetDBF=T FulRan=T
         wScrn=  0.000000 ICntrl=     500 IOpCl=  0 I1Cent=   200000004 NGrid=           0
         NMat0=    1 NMatS0=      1 NMatT0=    0 NMatD0=    1 NMtDS0=    0 NMtDT0=    0
 Petite list used in FoFCou.
 Harris En= -434.998375483112    
 JPrj=0 DoOrth=F DoCkMO=F.
 Initial guess <Sx>= 0.0000 <Sy>= 0.0000 <Sz>= 0.5000 <S**2>= 0.7500 S= 0.5000
 Leave Link  401 at Sat Mar  4 13:45:49 2017, MaxMem=   655360000 cpu:         0.6
 (Enter /mnt/software/gaussian/g09/l502.exe)
 UHF open shell SCF:
 Using DIIS extrapolation, IDIIS=  1040.
 Integral symmetry usage will be decided dynamically.
 Keep R1 and R2 ints in memory in canonical form, NReq=8999597.
 IVT=       36430 IEndB=       36430 NGot=   655360000 MDV=   647198221
 LenX=   647198221 LenY=   647192155
 Requested convergence on RMS density matrix=1.00D-08 within 128 cycles.
 Requested convergence on MAX density matrix=1.00D-06.
 Requested convergence on             energy=1.00D-06.
 No special actions if energy rises.
 FoFCou: FMM=F IPFlag=           0 FMFlag=           0 FMFlg1=           0
         NFxFlg=           0 DoJE=F BraDBF=F KetDBF=F FulRan=T
         wScrn=  0.000000 ICntrl=     600 IOpCl=  0 I1Cent=           0 NGrid=           0
         NMat0=    1 NMatS0=   2850 NMatT0=    0 NMatD0=    1 NMtDS0=    0 NMtDT0=    0
 Symmetry not used in FoFCou.

 Cycle   1  Pass 1  IDiag  1:
 E= -435.014833869650    
 DIIS: error= 7.71D-02 at cycle   1 NSaved=   1.
 NSaved= 1 IEnMin= 1 EnMin= -435.014833869650     IErMin= 1 ErrMin= 7.71D-02
 ErrMax= 7.71D-02  0.00D+00 EMaxC= 1.00D-01 BMatC= 1.03D+00 BMatP= 1.03D+00
 IDIUse=3 WtCom= 2.29D-01 WtEn= 7.71D-01
 Coeff-Com:  0.100D+01
 Coeff-En:   0.100D+01
 Coeff:      0.100D+01
 Gap=     0.457 Goal=   None    Shift=    0.000
 Gap=     0.788 Goal=   None    Shift=    0.000
 GapD=    0.457 DampG=2.000 DampE=0.500 DampFc=1.0000 IDamp=-1.
 RMSDP=3.97D-03 MaxDP=6.45D-02              OVMax= 5.88D-02

 Cycle   2  Pass 1  IDiag  1:
 E= -435.086093012455     Delta-E=       -0.071259142805 Rises=F Damp=F
 DIIS: error= 1.43D-02 at cycle   2 NSaved=   2.
 NSaved= 2 IEnMin= 2 EnMin= -435.086093012455     IErMin= 2 ErrMin= 1.43D-02
 ErrMax= 1.43D-02  0.00D+00 EMaxC= 1.00D-01 BMatC= 7.62D-02 BMatP= 1.03D+00
 IDIUse=3 WtCom= 8.57D-01 WtEn= 1.43D-01
 Coeff-Com:  0.109D+00 0.891D+00
 Coeff-En:   0.000D+00 0.100D+01
 Coeff:      0.936D-01 0.906D+00
 Gap=     0.435 Goal=   None    Shift=    0.000
 Gap=     0.388 Goal=   None    Shift=    0.000
 RMSDP=1.53D-03 MaxDP=2.80D-02 DE=-7.13D-02 OVMax= 5.11D-02

 Cycle   3  Pass 1  IDiag  1:
 E= -435.097174004881     Delta-E=       -0.011080992427 Rises=F Damp=F
 DIIS: error= 6.70D-03 at cycle   3 NSaved=   3.
 NSaved= 3 IEnMin= 3 EnMin= -435.097174004881     IErMin= 3 ErrMin= 6.70D-03
 ErrMax= 6.70D-03  0.00D+00 EMaxC= 1.00D-01 BMatC= 2.18D-02 BMatP= 7.62D-02
 IDIUse=3 WtCom= 9.33D-01 WtEn= 6.70D-02
 Coeff-Com: -0.240D-01 0.325D+00 0.699D+00
 Coeff-En:   0.000D+00 0.000D+00 0.100D+01
 Coeff:     -0.224D-01 0.303D+00 0.719D+00
 Gap=     0.425 Goal=   None    Shift=    0.000
 Gap=     0.377 Goal=   None    Shift=    0.000
 RMSDP=4.96D-04 MaxDP=1.07D-02 DE=-1.11D-02 OVMax= 1.08D-02

 Cycle   4  Pass 1  IDiag  1:
 E= -435.100617505790     Delta-E=       -0.003443500908 Rises=F Damp=F
 DIIS: error= 1.24D-03 at cycle   4 NSaved=   4.
 NSaved= 4 IEnMin= 4 EnMin= -435.100617505790     IErMin= 4 ErrMin= 1.24D-03
 ErrMax= 1.24D-03  0.00D+00 EMaxC= 1.00D-01 BMatC= 4.04D-04 BMatP= 2.18D-02
 IDIUse=3 WtCom= 9.88D-01 WtEn= 1.24D-02
 Coeff-Com: -0.430D-02-0.608D-01-0.488D-01 0.111D+01
 Coeff-En:   0.000D+00 0.000D+00 0.000D+00 0.100D+01
 Coeff:     -0.425D-02-0.600D-01-0.482D-01 0.111D+01
 Gap=     0.426 Goal=   None    Shift=    0.000
 Gap=     0.376 Goal=   None    Shift=    0.000
 RMSDP=1.54D-04 MaxDP=2.01D-03 DE=-3.44D-03 OVMax= 4.43D-03

 Cycle   5  Pass 1  IDiag  1:
 E= -435.100794370778     Delta-E=       -0.000176864988 Rises=F Damp=F
 DIIS: error= 4.82D-04 at cycle   5 NSaved=   5.
 NSaved= 5 IEnMin= 5 EnMin= -435.100794370778     IErMin= 5 ErrMin= 4.82D-04
 ErrMax= 4.82D-04  0.00D+00 EMaxC= 1.00D-01 BMatC= 4.57D-05 BMatP= 4.04D-04
 IDIUse=3 WtCom= 9.95D-01 WtEn= 4.82D-03
 Coeff-Com:  0.367D-02-0.295D-01-0.736D-01-0.979D-01 0.120D+01
 Coeff-En:   0.000D+00 0.000D+00 0.000D+00 0.000D+00 0.100D+01
 Coeff:      0.365D-02-0.294D-01-0.732D-01-0.974D-01 0.120D+01
 Gap=     0.428 Goal=   None    Shift=    0.000
 Gap=     0.376 Goal=   None    Shift=    0.000
 RMSDP=6.44D-05 MaxDP=1.01D-03 DE=-1.77D-04 OVMax= 2.09D-03

 Cycle   6  Pass 1  IDiag  1:
 E= -435.100819342555     Delta-E=       -0.000024971777 Rises=F Damp=F
 DIIS: error= 1.24D-04 at cycle   6 NSaved=   6.
 NSaved= 6 IEnMin= 6 EnMin= -435.100819342555     IErMin= 6 ErrMin= 1.24D-04
 ErrMax= 1.24D-04  0.00D+00 EMaxC= 1.00D-01 BMatC= 3.08D-06 BMatP= 4.57D-05
 IDIUse=3 WtCom= 9.99D-01 WtEn= 1.24D-03
 Coeff-Com:  0.192D-03 0.320D-02 0.364D-02-0.577D-01-0.292D-01 0.108D+01
 Coeff-En:   0.000D+00 0.000D+00 0.000D+00 0.000D+00 0.000D+00 0.100D+01
 Coeff:      0.192D-03 0.320D-02 0.363D-02-0.576D-01-0.291D-01 0.108D+01
 Gap=     0.428 Goal=   None    Shift=    0.000
 Gap=     0.376 Goal=   None    Shift=    0.000
 RMSDP=1.45D-05 MaxDP=2.19D-04 DE=-2.50D-05 OVMax= 4.10D-04

 Cycle   7  Pass 1  IDiag  1:
 E= -435.100820653276     Delta-E=       -0.000001310721 Rises=F Damp=F
 DIIS: error= 3.76D-05 at cycle   7 NSaved=   7.
 NSaved= 7 IEnMin= 7 EnMin= -435.100820653276     IErMin= 7 ErrMin= 3.76D-05
 ErrMax= 3.76D-05  0.00D+00 EMaxC= 1.00D-01 BMatC= 6.45D-07 BMatP= 3.08D-06
 IDIUse=1 WtCom= 1.00D+00 WtEn= 0.00D+00
 Coeff-Com: -0.470D-03 0.510D-02 0.113D-01-0.589D-03-0.178D+00 0.308D+00
 Coeff-Com:  0.854D+00
 Coeff:     -0.470D-03 0.510D-02 0.113D-01-0.589D-03-0.178D+00 0.308D+00
 Coeff:      0.854D+00
 Gap=     0.428 Goal=   None    Shift=    0.000
 Gap=     0.376 Goal=   None    Shift=    0.000
 RMSDP=4.96D-06 MaxDP=6.97D-05 DE=-1.31D-06 OVMax= 1.39D-04

 Cycle   8  Pass 1  IDiag  1:
 E= -435.100820841519     Delta-E=       -0.000000188243 Rises=F Damp=F
 DIIS: error= 1.18D-05 at cycle   8 NSaved=   8.
 NSaved= 8 IEnMin= 8 EnMin= -435.100820841519     IErMin= 8 ErrMin= 1.18D-05
 ErrMax= 1.18D-05  0.00D+00 EMaxC= 1.00D-01 BMatC= 3.55D-08 BMatP= 6.45D-07
 IDIUse=1 WtCom= 1.00D+00 WtEn= 0.00D+00
 Coeff-Com:  0.994D-04-0.144D-02-0.337D-02 0.508D-02 0.455D-01-0.153D+00
 Coeff-Com: -0.225D+00 0.133D+01
 Coeff:      0.994D-04-0.144D-02-0.337D-02 0.508D-02 0.455D-01-0.153D+00
 Coeff:     -0.225D+00 0.133D+01
 Gap=     0.428 Goal=   None    Shift=    0.000
 Gap=     0.376 Goal=   None    Shift=    0.000
 RMSDP=2.10D-06 MaxDP=2.93D-05 DE=-1.88D-07 OVMax= 7.68D-05

 Cycle   9  Pass 1  IDiag  1:
 E= -435.100820863701     Delta-E=       -0.000000022183 Rises=F Damp=F
 DIIS: error= 4.57D-06 at cycle   9 NSaved=   9.
 NSaved= 9 IEnMin= 9 EnMin= -435.100820863701     IErMin= 9 ErrMin= 4.57D-06
 ErrMax= 4.57D-06  0.00D+00 EMaxC= 1.00D-01 BMatC= 3.26D-09 BMatP= 3.55D-08
 IDIUse=1 WtCom= 1.00D+00 WtEn= 0.00D+00
 Coeff-Com:  0.480D-04-0.572D-03-0.129D-02 0.446D-03 0.199D-01-0.401D-01
 Coeff-Com: -0.102D+00 0.124D+00 0.100D+01
 Coeff:      0.480D-04-0.572D-03-0.129D-02 0.446D-03 0.199D-01-0.401D-01
 Coeff:     -0.102D+00 0.124D+00 0.100D+01
 Gap=     0.428 Goal=   None    Shift=    0.000
 Gap=     0.376 Goal=   None    Shift=    0.000
 RMSDP=5.96D-07 MaxDP=7.67D-06 DE=-2.22D-08 OVMax= 2.36D-05

 Cycle  10  Pass 1  IDiag  1:
 E= -435.100820865674     Delta-E=       -0.000000001972 Rises=F Damp=F
 DIIS: error= 1.54D-06 at cycle  10 NSaved=  10.
 NSaved=10 IEnMin=10 EnMin= -435.100820865674     IErMin=10 ErrMin= 1.54D-06
 ErrMax= 1.54D-06  0.00D+00 EMaxC= 1.00D-01 BMatC= 3.51D-10 BMatP= 3.26D-09
 IDIUse=1 WtCom= 1.00D+00 WtEn= 0.00D+00
 Coeff-Com: -0.180D-04 0.249D-03 0.580D-03-0.671D-03-0.818D-02 0.236D-01
 Coeff-Com:  0.375D-01-0.151D+00-0.211D+00 0.131D+01
 Coeff:     -0.180D-04 0.249D-03 0.580D-03-0.671D-03-0.818D-02 0.236D-01
 Coeff:      0.375D-01-0.151D+00-0.211D+00 0.131D+01
 Gap=     0.428 Goal=   None    Shift=    0.000
 Gap=     0.376 Goal=   None    Shift=    0.000
 RMSDP=2.72D-07 MaxDP=3.07D-06 DE=-1.97D-09 OVMax= 1.22D-05

 Cycle  11  Pass 1  IDiag  1:
 E= -435.100820865988     Delta-E=       -0.000000000314 Rises=F Damp=F
 DIIS: error= 4.27D-07 at cycle  11 NSaved=  11.
 NSaved=11 IEnMin=11 EnMin= -435.100820865988     IErMin=11 ErrMin= 4.27D-07
 ErrMax= 4.27D-07  0.00D+00 EMaxC= 1.00D-01 BMatC= 3.75D-11 BMatP= 3.51D-10
 IDIUse=1 WtCom= 1.00D+00 WtEn= 0.00D+00
 Coeff-Com:  0.113D-05-0.240D-04-0.561D-04 0.171D-03 0.614D-03-0.280D-02
 Coeff-Com: -0.382D-02 0.339D-01-0.265D-01-0.371D+00 0.137D+01
 Coeff:      0.113D-05-0.240D-04-0.561D-04 0.171D-03 0.614D-03-0.280D-02
 Coeff:     -0.382D-02 0.339D-01-0.265D-01-0.371D+00 0.137D+01
 Gap=     0.428 Goal=   None    Shift=    0.000
 Gap=     0.376 Goal=   None    Shift=    0.000
 RMSDP=9.28D-08 MaxDP=1.36D-06 DE=-3.14D-10 OVMax= 3.82D-06

 Cycle  12  Pass 1  IDiag  1:
 E= -435.100820866023     Delta-E=       -0.000000000035 Rises=F Damp=F
 DIIS: error= 2.57D-07 at cycle  12 NSaved=  12.
 NSaved=12 IEnMin=12 EnMin= -435.100820866023     IErMin=12 ErrMin= 2.57D-07
 ErrMax= 2.57D-07  0.00D+00 EMaxC= 1.00D-01 BMatC= 6.06D-12 BMatP= 3.75D-11
 IDIUse=1 WtCom= 1.00D+00 WtEn= 0.00D+00
 Coeff-Com:  0.209D-05-0.315D-04-0.706D-04 0.114D-03 0.948D-03-0.301D-02
 Coeff-Com: -0.485D-02 0.241D-01 0.139D-01-0.226D+00 0.327D+00 0.868D+00
 Coeff:      0.209D-05-0.315D-04-0.706D-04 0.114D-03 0.948D-03-0.301D-02
 Coeff:     -0.485D-02 0.241D-01 0.139D-01-0.226D+00 0.327D+00 0.868D+00
 Gap=     0.428 Goal=   None    Shift=    0.000
 Gap=     0.376 Goal=   None    Shift=    0.000
 RMSDP=2.23D-08 MaxDP=3.77D-07 DE=-3.46D-11 OVMax= 9.09D-07

 Cycle  13  Pass 1  IDiag  1:
 E= -435.100820866028     Delta-E=       -0.000000000006 Rises=F Damp=F
 DIIS: error= 2.57D-07 at cycle  13 NSaved=  13.
 NSaved=13 IEnMin=13 EnMin= -435.100820866028     IErMin=13 ErrMin= 2.57D-07
 ErrMax= 2.57D-07  0.00D+00 EMaxC= 1.00D-01 BMatC= 1.53D-12 BMatP= 6.06D-12
 IDIUse=1 WtCom= 1.00D+00 WtEn= 0.00D+00
 Coeff-Com:  0.164D-07 0.447D-06 0.283D-05-0.121D-04-0.161D-04 0.150D-03
 Coeff-Com:  0.108D-03-0.229D-02 0.391D-02 0.327D-01-0.159D+00 0.717D-01
 Coeff-Com:  0.105D+01
 Coeff:      0.164D-07 0.447D-06 0.283D-05-0.121D-04-0.161D-04 0.150D-03
 Coeff:      0.108D-03-0.229D-02 0.391D-02 0.327D-01-0.159D+00 0.717D-01
 Coeff:      0.105D+01
 Gap=     0.428 Goal=   None    Shift=    0.000
 Gap=     0.376 Goal=   None    Shift=    0.000
 RMSDP=1.13D-08 MaxDP=4.37D-07 DE=-5.57D-12 OVMax= 1.05D-06

 Cycle  14  Pass 1  IDiag  1:
 E= -435.100820866030     Delta-E=       -0.000000000002 Rises=F Damp=F
 DIIS: error= 2.56D-07 at cycle  14 NSaved=  14.
 NSaved=14 IEnMin=14 EnMin= -435.100820866030     IErMin=14 ErrMin= 2.56D-07
 ErrMax= 2.56D-07  0.00D+00 EMaxC= 1.00D-01 BMatC= 1.10D-12 BMatP= 1.53D-12
 IDIUse=1 WtCom= 1.00D+00 WtEn= 0.00D+00
 Coeff-Com: -0.970D-07 0.141D-05 0.297D-05-0.461D-05-0.395D-04 0.129D-03
 Coeff-Com:  0.195D-03-0.969D-03-0.116D-02 0.931D-02-0.300D-02-0.551D-01
 Coeff-Com: -0.116D+00 0.117D+01
 Coeff:     -0.970D-07 0.141D-05 0.297D-05-0.461D-05-0.395D-04 0.129D-03
 Coeff:      0.195D-03-0.969D-03-0.116D-02 0.931D-02-0.300D-02-0.551D-01
 Coeff:     -0.116D+00 0.117D+01
 Gap=     0.428 Goal=   None    Shift=    0.000
 Gap=     0.376 Goal=   None    Shift=    0.000
 RMSDP=9.94D-09 MaxDP=4.54D-07 DE=-1.71D-12 OVMax= 1.09D-06

 SCF Done:  E(UHF) =  -435.100820866     A.U. after   14 cycles
            NFock= 14  Conv=0.99D-08     -V/T= 2.0026
 <Sx>= 0.0000 <Sy>= 0.0000 <Sz>= 0.5000 <S**2>= 0.7527 S= 0.5013
 <L.S>= 0.000000000000E+00
 KE= 4.339647688387D+02 PE=-1.310904704683D+03 EE= 3.000076643511D+02
 Annihilation of the first spin contaminant:
 S**2 before annihilation     0.7527,   after     0.7500
 Leave Link  502 at Sat Mar  4 13:45:49 2017, MaxMem=   655360000 cpu:         1.8
 (Enter /mnt/software/gaussian/g09/l801.exe)
 Range of M.O.s used for correlation:     1    75
 NBasis=    75 NAE=    21 NBE=    20 NFC=     0 NFV=     0
 NROrb=     75 NOA=    21 NOB=    20 NVA=    54 NVB=    55
 Leave Link  801 at Sat Mar  4 13:45:49 2017, MaxMem=   655360000 cpu:         0.1
 (Enter /mnt/software/gaussian/g09/l1002.exe)
 Minotr:  UHF open shell wavefunction.
          Direct CPHF calculation.
          Differentiating once with respect to electric field.
                with respect to dipole field.
          Electric field/nuclear overlap derivatives assumed to be zero.
          Requested convergence is 1.0D-08 RMS, and 1.0D-07 maximum.
          Secondary convergence is 1.0D-12 RMS, and 1.0D-12 maximum.
          NewPWx=F KeepS1=T KeepF1=T KeepIn=T MapXYZ=F SortEE=F KeepMc=T.
          MDV=     655359806 using IRadAn=       2.
 Keep R1 and R2 ints in memory in canonical form, NReq=8971614.
 FoFCou: FMM=F IPFlag=           0 FMFlag=           0 FMFlg1=           0
         NFxFlg=           0 DoJE=F BraDBF=F KetDBF=F FulRan=T
         wScrn=  0.000000 ICntrl=     600 IOpCl=  0 I1Cent=           0 NGrid=           0
         NMat0=    1 NMatS0=   2850 NMatT0=    0 NMatD0=    1 NMtDS0=    0 NMtDT0=    0
 Symmetry not used in FoFCou.
          Solving linear equations simultaneously, MaxMat=       0.
          There are     3 degrees of freedom in the 1st order CPHF.  IDoFFX=0 NUNeed=     3.
      3 vectors produced by pass  0 Test12= 7.45D-14 3.33D-08 XBig12= 4.42D+00 6.73D-01.
 AX will form     3 AO Fock derivatives at one time.
      3 vectors produced by pass  1 Test12= 7.45D-14 3.33D-08 XBig12= 3.07D-01 1.09D-01.
      3 vectors produced by pass  2 Test12= 7.45D-14 3.33D-08 XBig12= 4.74D-02 6.77D-02.
      3 vectors produced by pass  3 Test12= 7.45D-14 3.33D-08 XBig12= 2.30D-03 1.48D-02.
      3 vectors produced by pass  4 Test12= 7.45D-14 3.33D-08 XBig12= 4.66D-05 1.36D-03.
      3 vectors produced by pass  5 Test12= 7.45D-14 3.33D-08 XBig12= 1.38D-06 1.95D-04.
      3 vectors produced by pass  6 Test12= 7.45D-14 3.33D-08 XBig12= 7.00D-08 7.61D-05.
      3 vectors produced by pass  7 Test12= 7.45D-14 3.33D-08 XBig12= 3.51D-09 4.75D-05.
      3 vectors produced by pass  8 Test12= 7.45D-14 3.33D-08 XBig12= 1.97D-10 4.66D-06.
      3 vectors produced by pass  9 Test12= 7.45D-14 3.33D-08 XBig12= 7.54D-12 8.78D-07.
      3 vectors produced by pass 10 Test12= 7.45D-14 3.33D-08 XBig12= 1.69D-13 3.20D-07.
 InvSVY:  IOpt=1 It=  1 EMax= 6.66D-16
 Solved reduced A of dimension    33 with     3 vectors.
 End of Minotr F.D. properties file   721 does not exist.
 End of Minotr F.D. properties file   722 does not exist.
 End of Minotr F.D. properties file   788 does not exist.
 Leave Link 1002 at Sat Mar  4 13:45:50 2017, MaxMem=   655360000 cpu:         2.5
 (Enter /mnt/software/gaussian/g09/l1101.exe)
 Using compressed storage, NAtomX=     5.
 Will process      6 centers per pass.
 Leave Link 1101 at Sat Mar  4 13:45:50 2017, MaxMem=   655360000 cpu:         0.8
 (Enter /mnt/software/gaussian/g09/l1102.exe)
 Symmetrizing basis deriv contribution to polar:
 IMax=3 JMax=2 DiffMx= 0.00D+00
 Leave Link 1102 at Sat Mar  4 13:45:50 2017, MaxMem=   655360000 cpu:         0.1
 (Enter /mnt/software/gaussian/g09/l1110.exe)
 Forming Gx(P) for the SCF density, NAtomX=     5.
 Integral derivatives from FoFJK, PRISM(SPDF).
 Do as many integral derivatives as possible in FoFJK.
 G2DrvN: MDV=     655359856.
 G2DrvN: will do     6 centers at a time, making    1 passes.
 PxScal for G2LodP:  IOpCl= 1 ISclPx=1 IMOff=     1 NMtTot=     4 NTT=    2850 ScalPx= 1.20D+00
 Calling FoFCou, ICntrl=  3107 FMM=F I1Cent=   0 AccDes= 0.00D+00.
 FoFJK:  IHMeth= 1 ICntrl=    3107 DoSepK=F KAlg= 0 I1Cent=   0 FoldK=F
 IRaf=         0 NMat=   1 IRICut=       1 DoRegI=T DoRafI=F ISym2E= 0.
 FoFCou: FMM=F IPFlag=           0 FMFlag=      100000 FMFlg1=           0
         NFxFlg=           0 DoJE=F BraDBF=F KetDBF=F FulRan=T
         wScrn=  0.000000 ICntrl=    3107 IOpCl=  1 I1Cent=           0 NGrid=           0
         NMat0=    1 NMatS0=      1 NMatT0=    0 NMatD0=    4 NMtDS0=    3 NMtDT0=    0
 Symmetry not used in FoFCou.
 End of G2Drv F.D. properties file   721 does not exist.
 End of G2Drv F.D. properties file   722 does not exist.
 End of G2Drv F.D. properties file   788 does not exist.
 Leave Link 1110 at Sat Mar  4 13:45:50 2017, MaxMem=   655360000 cpu:         1.7
 (Enter /mnt/software/gaussian/g09/l1002.exe)
 Minotr:  UHF open shell wavefunction.
          IDoAtm=11111
          Direct CPHF calculation.
          Differentiating once with respect to electric field.
                with respect to dipole field.
          Differentiating once with respect to nuclear coordinates.
          Requested convergence is 1.0D-08 RMS, and 1.0D-07 maximum.
          Secondary convergence is 1.0D-12 RMS, and 1.0D-12 maximum.
          NewPWx=T KeepS1=F KeepF1=F KeepIn=T MapXYZ=F SortEE=F KeepMc=T.
          MDV=     655359796 using IRadAn=       2.
 Keep R1 and R2 ints in memory in canonical form, NReq=8971729.
 FoFCou: FMM=F IPFlag=           0 FMFlag=           0 FMFlg1=           0
         NFxFlg=           0 DoJE=F BraDBF=F KetDBF=F FulRan=T
         wScrn=  0.000000 ICntrl=     600 IOpCl=  0 I1Cent=           0 NGrid=           0
         NMat0=    1 NMatS0=   2850 NMatT0=    0 NMatD0=    1 NMtDS0=    0 NMtDT0=    0
 Symmetry not used in FoFCou.
          Solving linear equations simultaneously, MaxMat=       0.
          There are    18 degrees of freedom in the 1st order CPHF.  IDoFFX=5 NUNeed=    18.
 Will reuse    3 saved solutions.
     12 vectors produced by pass  0 Test12= 1.24D-14 5.56D-09 XBig12= 2.00D-01 8.21D-02.
 AX will form    12 AO Fock derivatives at one time.
     12 vectors produced by pass  1 Test12= 1.24D-14 5.56D-09 XBig12= 1.71D-02 5.44D-02.
     12 vectors produced by pass  2 Test12= 1.24D-14 5.56D-09 XBig12= 2.26D-03 9.25D-03.
     12 vectors produced by pass  3 Test12= 1.24D-14 5.56D-09 XBig12= 5.11D-05 1.65D-03.
     11 vectors produced by pass  4 Test12= 1.24D-14 5.56D-09 XBig12= 7.27D-07 1.46D-04.
      9 vectors produced by pass  5 Test12= 1.24D-14 5.56D-09 XBig12= 8.67D-09 1.52D-05.
      9 vectors produced by pass  6 Test12= 1.24D-14 5.56D-09 XBig12= 1.79D-10 3.24D-06.
      7 vectors produced by pass  7 Test12= 1.24D-14 5.56D-09 XBig12= 1.52D-12 2.61D-07.
      2 vectors produced by pass  8 Test12= 1.24D-14 5.56D-09 XBig12= 1.07D-14 1.68D-08.
 InvSVY:  IOpt=1 It=  1 EMax= 2.20D-14
 Solved reduced A of dimension    86 with    12 vectors.
 FullF1:  Do perturbations    1 to     3.
 Isotropic polarizability for W=    0.000000       11.90 Bohr**3.
 FullF1:  Do perturbations    1 to     6.
 End of Minotr F.D. properties file   721 does not exist.
 End of Minotr F.D. properties file   722 does not exist.
 End of Minotr F.D. properties file   788 does not exist.
 Leave Link 1002 at Sat Mar  4 13:45:51 2017, MaxMem=   655360000 cpu:         4.0
 (Enter /mnt/software/gaussian/g09/l601.exe)
 Copying SCF densities to generalized density rwf, IOpCl= 1 IROHF=0.

 **********************************************************************

            Population analysis using the SCF density.

 **********************************************************************

 Orbital symmetries:
 Alpha Orbitals:
       Occupied  (A) (A) (A) (A) (A) (A) (A) (A) (A) (A) (A) (A)
                 (A) (A) (A) (A) (A) (A) (A) (A) (A)
       Virtual   (A) (A) (A) (A) (A) (A) (A) (A) (A) (A) (A) (A)
                 (A) (A) (A) (A) (A) (A) (A) (A) (A) (A) (A) (A)
                 (A) (A) (A) (A) (A) (A) (A) (A) (A) (A) (A) (A)
                 (A) (A) (A) (A) (A) (A) (A) (A) (A) (A) (A) (A)
                 (A) (A) (A) (A) (A) (A)
 Beta  Orbitals:
       Occupied  (A) (A) (A) (A) (A) (A) (A) (A) (A) (A) (A) (A)
                 (A) (A) (A) (A) (A) (A) (A) (A)
       Virtual   (A) (A) (A) (A) (A) (A) (A) (A) (A) (A) (A) (A)
                 (A) (A) (A) (A) (A) (A) (A) (A) (A) (A) (A) (A)
                 (A) (A) (A) (A) (A) (A) (A) (A) (A) (A) (A) (A)
                 (A) (A) (A) (A) (A) (A) (A) (A) (A) (A) (A) (A)
                 (A) (A) (A) (A) (A) (A) (A)
 The electronic state is 2-A.
 Alpha  occ. eigenvalues --  -26.75644 -26.74516 -26.72450 -26.43890 -11.96877
 Alpha  occ. eigenvalues --   -2.16634  -2.05456  -2.01580  -1.69272  -1.32540
 Alpha  occ. eigenvalues --   -1.22714  -1.22077  -1.17622  -1.06732  -1.05731
 Alpha  occ. eigenvalues --   -1.03408  -1.01760  -1.00816  -0.86095  -0.75307
 Alpha  occ. eigenvalues --   -0.75304
 Alpha virt. eigenvalues --   -0.32510   0.09617   0.11811   0.15098   0.32216
 Alpha virt. eigenvalues --    0.35771   0.39098   0.42746   1.00135   1.01728
 Alpha virt. eigenvalues --    1.03016   1.03641   1.04574   1.05890   1.26494
 Alpha virt. eigenvalues --    1.27432   1.29140   1.31164   1.32721   1.32758
 Alpha virt. eigenvalues --    1.33419   1.39555   1.39564   1.42073   1.59167
 Alpha virt. eigenvalues --    1.61269   1.73758   1.75418   1.77719   1.78446
 Alpha virt. eigenvalues --    1.81717   1.82228   2.00268   2.01993   2.01998
 Alpha virt. eigenvalues --    2.02146   2.06326   2.07410   2.07410   2.09118
 Alpha virt. eigenvalues --    2.13566   2.42696   2.49893   2.55489   2.79388
 Alpha virt. eigenvalues --    2.82600   3.09885   3.12167   3.17663   3.66073
 Alpha virt. eigenvalues --    4.19179   4.33807   4.42926   4.86197
  Beta  occ. eigenvalues --  -26.75644 -26.74516 -26.72450 -26.39115 -11.96877
  Beta  occ. eigenvalues --   -2.16634  -2.05456  -2.01580  -1.50081  -1.32540
  Beta  occ. eigenvalues --   -1.22714  -1.22077  -1.17622  -1.06732  -1.05731
  Beta  occ. eigenvalues --   -1.03408  -1.01760  -1.00816  -0.70143  -0.70139
  Beta virt. eigenvalues --   -0.32510   0.05588   0.09617   0.11811   0.15098
  Beta virt. eigenvalues --    0.32216   0.35771   0.39098   0.42746   1.00135
  Beta virt. eigenvalues --    1.01728   1.03641   1.04574   1.05890   1.06246
  Beta virt. eigenvalues --    1.26494   1.27432   1.29140   1.31164   1.32758
  Beta virt. eigenvalues --    1.33419   1.42073   1.42081   1.42089   1.55071
  Beta virt. eigenvalues --    1.59167   1.61269   1.73758   1.75418   1.77719
  Beta virt. eigenvalues --    1.78446   1.81717   1.82228   2.02146   2.06326
  Beta virt. eigenvalues --    2.08083   2.08083   2.09118   2.10875   2.10879
  Beta virt. eigenvalues --    2.11978   2.13566   2.42696   2.49893   2.55489
  Beta virt. eigenvalues --    2.79388   2.82600   3.09885   3.12167   3.17663
  Beta virt. eigenvalues --    3.70373   4.19179   4.33807   4.42926   4.86197
          Condensed to atoms (all electrons):
               1          2          3          4          5
     1  C    3.545332   0.370358   0.394995   0.000000   0.415727
     2  F    0.370358   8.847096  -0.036953   0.000000  -0.044420
     3  F    0.394995  -0.036953   8.774422   0.000000  -0.042823
     4  F    0.000000   0.000000   0.000000   9.000000   0.000000
     5  F    0.415727  -0.044420  -0.042823   0.000000   8.719384
          Atomic-Atomic Spin Densities.
               1          2          3          4          5
     1  C    0.000000   0.000000   0.000000   0.000000   0.000000
     2  F    0.000000   0.000000   0.000000   0.000000   0.000000
     3  F    0.000000   0.000000   0.000000   0.000000   0.000000
     4  F    0.000000   0.000000   0.000000   1.000000   0.000000
     5  F    0.000000   0.000000   0.000000   0.000000   0.000000
 Mulliken charges and spin densities:
               1          2
     1  C    1.273589   0.000000
     2  F   -0.136081   0.000000
     3  F   -0.089640   0.000000
     4  F    0.000000   1.000000
     5  F   -0.047868   0.000000
 Sum of Mulliken charges =   1.00000   1.00000
 Mulliken charges and spin densities with hydrogens summed into heavy atoms:
               1          2
     1  C    1.273589   0.000000
     2  F   -0.136081   0.000000
     3  F   -0.089640   0.000000
     4  F    0.000000   1.000000
     5  F   -0.047868   0.000000
 APT charges:
               1
     1  C    1.961472
     2  F   -0.303777
     3  F   -0.320896
     4  F    0.000001
     5  F   -0.336799
 Sum of APT charges =   1.00000
 APT charges with hydrogens summed into heavy atoms:
               1
     1  C    1.961472
     2  F   -0.303777
     3  F   -0.320896
     4  F    0.000001
     5  F   -0.336799
 Electronic spatial extent (au):  <R**2>=           5178.3983
 Charge=              1.0000 electrons
 Dipole moment (field-independent basis, Debye):
    X=            -13.9724    Y=              0.2534    Z=             -1.7493  Tot=             14.0838
 Quadrupole moment (field-independent basis, Debye-Ang):
   XX=             19.5630   YY=            -20.4876   ZZ=            -19.9783
   XY=             -0.6884   XZ=              4.7273   YZ=             -0.3157
 Traceless Quadrupole moment (field-independent basis, Debye-Ang):
   XX=             26.5306   YY=            -13.5200   ZZ=            -13.0107
   XY=             -0.6884   XZ=              4.7273   YZ=             -0.3157
 Octapole moment (field-independent basis, Debye-Ang**2):
  XXX=           -123.7611  YYY=              1.0013  ZZZ=              0.0048  XYY=              5.1329
  XXY=              1.3482  XXZ=            -12.2369  XZZ=             -3.5906  YZZ=              0.0363
  YYZ=              0.5220  XYZ=             -3.6352
 Hexadecapole moment (field-independent basis, Debye-Ang**3):
 XXXX=          -4046.0169 YYYY=            -63.0587 ZZZZ=            -22.8127 XXXY=             -0.3340
 XXXZ=             31.3791 YYYX=             -3.1071 YYYZ=              0.4368 ZZZX=              0.4628
 ZZZY=             -0.4004 XXYY=           -656.4765 XXZZ=           -719.5982 YYZZ=            -14.6375
 XXYZ=            -36.4032 YYXZ=             -1.8690 ZZXY=              0.0437
 N-N= 1.418314506275D+02 E-N=-1.310904704712D+03  KE= 4.339647688387D+02
  Exact polarizability:  12.461   0.031  12.838   1.460  -0.183  10.408
 Approx polarizability:  11.664   0.064  11.914   0.974  -0.172  10.478
                          Isotropic Fermi Contact Couplings
        Atom                 a.u.       MegaHertz       Gauss      10(-4) cm-1
     1  C(13)              0.00000       0.00000       0.00000       0.00000
     2  F(19)              0.00000       0.00000       0.00000       0.00000
     3  F(19)              0.00000       0.00000       0.00000       0.00000
     4  F(19)              0.06931     291.62718     104.05982      97.27635
     5  F(19)              0.00000       0.00000       0.00000       0.00000
 --------------------------------------------------------
       Center         ----  Spin Dipole Couplings  ----
                      3XX-RR        3YY-RR        3ZZ-RR
 --------------------------------------------------------
     1   Atom        0.000108     -0.000054     -0.000054
     2   Atom        0.000129     -0.000065     -0.000065
     3   Atom        0.000087     -0.000043     -0.000043
     4   Atom       -2.911663      4.492515     -1.580852
     5   Atom        0.000100     -0.000050     -0.000051
 --------------------------------------------------------
                        XY            XZ            YZ
 --------------------------------------------------------
     1   Atom        0.000000      0.000002      0.000000
     2   Atom        0.000007     -0.000009      0.000000
     3   Atom        0.000006      0.000002      0.000000
     4   Atom       -0.010522      0.004462     -3.139089
     5   Atom       -0.000012     -0.000001      0.000000
 --------------------------------------------------------


 ---------------------------------------------------------------------------------
              Anisotropic Spin Dipole Couplings in Principal Axis System
 ---------------------------------------------------------------------------------

       Atom             a.u.   MegaHertz   Gauss  10(-4) cm-1        Axes

              Baa    -0.0001    -0.007    -0.003    -0.002 -0.0130  0.3903  0.9206
     1 C(13)  Bbb    -0.0001    -0.007    -0.003    -0.002  0.0066  0.9207 -0.3902
              Bcc     0.0001     0.014     0.005     0.005  0.9999 -0.0010  0.0145
 
              Baa    -0.0001    -0.033    -0.012    -0.011  0.0283  0.3902  0.9203
     2 F(19)  Bbb    -0.0001    -0.033    -0.012    -0.011 -0.0518  0.9200 -0.3885
              Bcc     0.0001     0.065     0.023     0.022  0.9983  0.0366 -0.0463
 
              Baa     0.0000    -0.022    -0.008    -0.007 -0.0353  0.3900  0.9201
     3 F(19)  Bbb     0.0000    -0.022    -0.008    -0.007 -0.0347  0.9197 -0.3912
              Bcc     0.0001     0.044     0.016     0.015  0.9988  0.0457  0.0189
 
              Baa    -2.9117 -1462.330  -521.796  -487.781 -0.0200  0.3902  0.9205
     4 F(19)  Bbb    -2.9117 -1462.319  -521.792  -487.777  0.9998  0.0090  0.0179
              Bcc     5.8234  2924.649  1043.588   975.558 -0.0013  0.9207 -0.3903
 
              Baa    -0.0001    -0.026    -0.009    -0.009  0.0375  0.3901  0.9200
     5 F(19)  Bbb    -0.0001    -0.025    -0.009    -0.008  0.0724  0.9172 -0.3919
              Bcc     0.0001     0.051     0.018     0.017  0.9967 -0.0813 -0.0062
 

 ---------------------------------------------------------------------------------

 No NMR shielding tensors so no spin-rotation constants.
 Leave Link  601 at Sat Mar  4 13:45:51 2017, MaxMem=   655360000 cpu:         1.3
 (Enter /mnt/software/gaussian/g09/l701.exe)
 Compute integral second derivatives.
 ... and contract with generalized density number  0.
 Entering OneElI...
 Calculate overlap and kinetic energy integrals
    NBasis =  75  MinDer = 2  MaxDer = 2
 Requested accuracy = 0.1000D-12
 PrsmSu:  NPrtUS=   6 ThrOK=T IAlg=1 NPAlg=1 LenDen=           0.
 Prism:   IPart=     0 DynPar=F LinDyn=F Incr=           1.
 PRISM was handed   109212905 working-precision words and   146 shell-pairs
 PRISM was handed   109212905 working-precision words and   146 shell-pairs
 PRISM was handed   109212905 working-precision words and   146 shell-pairs
 PRISM was handed   109212905 working-precision words and   146 shell-pairs
 PRISM was handed   109212905 working-precision words and   146 shell-pairs
 PRISM was handed   109212905 working-precision words and   146 shell-pairs
 IPart=  5 NShTot=          15 NBatch=          10 AvBLen=         1.5
 IPart=  4 NShTot=          23 NBatch=          11 AvBLen=         2.1
 IPart=  1 NShTot=          29 NBatch=          15 AvBLen=         1.9
 IPart=  3 NShTot=          23 NBatch=          11 AvBLen=         2.1
 IPart=  2 NShTot=          27 NBatch=          15 AvBLen=         1.8
 IPart=  0 NShTot=          29 NBatch=          15 AvBLen=         1.9
 PrSmSu:  NxtVal=              7.
 Entering OneElI...
 Calculate potential energy integrals
    NBasis =  75  MinDer = 2  MaxDer = 2
 Requested accuracy = 0.1000D-12
 PrsmSu:  NPrtUS=   6 ThrOK=T IAlg=1 NPAlg=1 LenDen=           0.
 Prism:   IPart=     0 DynPar=F LinDyn=F Incr=           1.
 PRISM was handed   109214646 working-precision words and   143 shell-pairs
 PRISM was handed   109214646 working-precision words and   143 shell-pairs
 PRISM was handed   109214646 working-precision words and   143 shell-pairs
 PRISM was handed   109214646 working-precision words and   143 shell-pairs
 PRISM was handed   109214646 working-precision words and   143 shell-pairs
 PRISM was handed   109214646 working-precision words and   143 shell-pairs
 IPart=  5 NShTot=          70 NBatch=          14 AvBLen=         5.0
 IPart=  1 NShTot=         130 NBatch=          26 AvBLen=         5.0
 IPart=  4 NShTot=         115 NBatch=          23 AvBLen=         5.0
 IPart=  3 NShTot=         120 NBatch=          24 AvBLen=         5.0
 IPart=  2 NShTot=         120 NBatch=          24 AvBLen=         5.0
 IPart=  0 NShTot=         160 NBatch=          32 AvBLen=         5.0
 PrSmSu:  NxtVal=              7.
 Polarizability after L701:
                1             2             3 
      1  0.124608D+02
      2  0.313139D-01  0.128381D+02
      3  0.146031D+01 -0.183421D+00  0.104079D+02
 Dipole Derivatives after L701:
                 1             2             3             4             5 
      1   0.211095D+01  0.101276D-01  0.370357D+00 -0.400133D+00  0.120553D+00
      2   0.276648D-02  0.237541D+01  0.515395D-01  0.106267D+00 -0.282927D+00
      3   0.392061D+00  0.318105D-01  0.139806D+01 -0.112073D+00  0.425317D-01
                 6             7             8             9            10 
      1  -0.312013D+00 -0.502044D+00 -0.174580D+00 -0.196223D-01 -0.173779D-03
      2   0.134297D+00 -0.258450D+00 -0.371016D+00  0.148891D-01  0.123150D-05
      3  -0.228271D+00 -0.211044D+00 -0.889460D-01 -0.896290D-01 -0.637507D-05
                11            12            13            14            15 
      1   0.000000D+00 -0.570155D-05 -0.208598D+00  0.438983D-01 -0.387158D-01
      2   0.908413D-04 -0.206022D-05  0.149415D+00 -0.721556D+00 -0.200723D+00
      3  -0.150533D-05  0.862206D-04 -0.689375D-01  0.146053D-01 -0.802441D-01
 Hessian after L701:
                1             2             3             4             5 
      1  0.198367D+02
      2 -0.306975D+00  0.163829D+02
      3 -0.589307D+01 -0.799700D+00  0.303321D+02
      4 -0.515254D+01 -0.348062D+01  0.670044D+01  0.382900D+01
      5 -0.339999D+01 -0.884324D+01 -0.378095D+01  0.441007D+01  0.891005D+01
      6  0.607841D+01 -0.350808D+01 -0.468133D+01 -0.770882D+01  0.405844D+01
      7 -0.177094D+01  0.690118D+01 -0.322342D-01  0.131527D+01  0.597722D-01
      8  0.709707D+01 -0.763481D+01 -0.147572D+00  0.317312D+00 -0.862575D+00
      9  0.531319D+00  0.215565D+00 -0.128256D+02  0.819290D+00  0.980974D-01
     10  0.256587D-02  0.303679D-03  0.611640D-02  0.762263D-02  0.232800D-02
     11  0.134280D-04 -0.271951D-02 -0.486425D-05  0.516640D-03 -0.526801D-02
     12 -0.117119D-03  0.508788D-05 -0.225753D-02 -0.700869D-03 -0.304430D-04
     13 -0.129157D+02 -0.311389D+01 -0.781251D+00  0.654260D-03 -0.107218D+01
     14 -0.339012D+01  0.978844D-01  0.472823D+01 -0.124728D+01  0.801032D+00
     15 -0.716545D+00  0.409221D+01 -0.128228D+02  0.189796D+00 -0.375560D+00
                6             7             8             9            10 
      6  0.584175D+01
      7  0.120365D+01  0.986899D+00
      8  0.259450D+00 -0.820018D+01  0.709721D+01
      9 -0.405638D+00 -0.151111D+01 -0.654053D+00  0.139481D+02
     10 -0.448943D-02  0.110295D-01  0.294132D-02 -0.154026D-03 -0.305739D-01
     11 -0.963538D-04  0.591410D-03 -0.344501D-02  0.762211D-05 -0.590815D-04
     12 -0.532834D-02  0.334121D-03  0.825363D-04 -0.357116D-02  0.515533D-03
     13  0.431254D+00 -0.542252D+00  0.782860D+00  0.160659D+00  0.935589D-02
     14 -0.809720D+00  0.123864D+01  0.140362D+01  0.340383D+00 -0.551392D-02
     15 -0.749462D+00  0.339367D+00  0.542092D+00 -0.713271D+00 -0.198847D-02
               11            12            13            14            15 
     11  0.152447D-01
     12  0.100651D-04  0.153291D-01
     13 -0.106240D-02 -0.316659D-04  0.134480D+02
     14 -0.381216D-02 -0.672462D-04  0.340428D+01 -0.229873D+01
     15  0.835308D-04 -0.417210D-02  0.189370D+00 -0.425882D+01  0.142898D+02
 Leave Link  701 at Sat Mar  4 13:45:51 2017, MaxMem=   655360000 cpu:         1.0
 (Enter /mnt/software/gaussian/g09/l702.exe)
 L702 exits ... SP integral derivatives will be done elsewhere.
 Leave Link  702 at Sat Mar  4 13:45:51 2017, MaxMem=   655360000 cpu:         0.1
 (Enter /mnt/software/gaussian/g09/l703.exe)
 Compute integral second derivatives, UseDBF=F ICtDFT=           0.
 Integral derivatives from FoFJK, PRISM(SPDF).
 ICntrl=    100127.
 Calling FoFJK, ICntrl=    100127 FMM=F ISym2X=0 I1Cent= 0 IOpClX= 1 NMat=1 NMatS=1 NMatT=0.
 FoFJK:  IHMeth= 1 ICntrl=  100127 DoSepK=F KAlg= 0 I1Cent=   0 FoldK=F
 IRaf=         0 NMat=   1 IRICut=       1 DoRegI=T DoRafI=F ISym2E= 0.
 FoFCou: FMM=F IPFlag=           0 FMFlag=      100000 FMFlg1=         800
         NFxFlg=           0 DoJE=F BraDBF=F KetDBF=F FulRan=T
         wScrn=  0.000000 ICntrl=  100127 IOpCl=  1 I1Cent=           0 NGrid=           0
         NMat0=    1 NMatS0=      1 NMatT0=    0 NMatD0=    1 NMtDS0=    0 NMtDT0=    0
 Symmetry not used in FoFCou.
 FoFCou:  KetSym=F NOpSet=  1 NOpAb=1 NOp=  1.
 FoFCou:  CnvScl= 1.00D+00 Thresh= 1.00D-10 IAcrcy=      10.
 PrismS was handed   655323644 working-precision words and   143 shell-pairs
 FoFCou: LinMIO=F DoNuc=F BraDBF=F KetDBF=F HaveP=T PDBF=F HaveZ=T HaveW=F
         NIJTC =       6 NIJTAt=       0 NIJTCD=       0 NIJTT =       6
         IJTBeg=       1 IJTEnd=       6 KLTBeg=       1 KLTEnd=       6
         IPTBeg=       1 IPTEnd=       6 IPTBCv=       1 IPTECv=       6
         IZTBeg=       1 IZTEnd=       6 IZTBCv=       1 IZTECv=       6
         IWTBeg=       7 IWTEnd=       6 IWTBCv=       7 IWTECv=       6
         INTBeg=       1 INTEnd=       0 IFTBCv=       1 IFTECv=       6
 NCel replicated for PrismC:     1
 CoulSu:  IncDef=  1024 NBBP=          10296 NTPThr=   100 NPartT=    6 Incr=          17 LDynOK=F.
 CoulSu:  NPrtUS=   6 ThrOK=T IAlg=1 NPAlg=1 LenDen=           0 LWGrdD=           0 DoCopy=F.
 Enter PrismC: JobTyp=22 DoJE=F Cont=F.
 PrismC:  IPart=     0 DynPar=F LinDyn=F Incr=          17 UseFst=F UseS4=T IGathr=2.
 PrismC was handed   109213302 working-precision words and   143 shell-pairs
 Enter PrismC: JobTyp=22 DoJE=F Cont=F.
 PrismC was handed   109213302 working-precision words and   143 shell-pairs
 Enter PrismC: JobTyp=22 DoJE=F Cont=F.
 PrismC was handed   109213302 working-precision words and   143 shell-pairs
 Enter PrismC: JobTyp=22 DoJE=F Cont=F.
 Enter PrismC: JobTyp=22 DoJE=F Cont=F.
 PrismC was handed   109213302 working-precision words and   143 shell-pairs
 PrismC was handed   109213302 working-precision words and   143 shell-pairs
 Enter PrismC: JobTyp=22 DoJE=F Cont=F.
 PrismC was handed   109213302 working-precision words and   143 shell-pairs
 IPart=  2 NShTot=        1667 NShNF=        1667 NShFF=           0 NBatch=         179 AvBLen=         9.3
 IPart=  1 NShTot=        1653 NShNF=        1653 NShFF=           0 NBatch=         177 AvBLen=         9.3
 IPart=  4 NShTot=        1674 NShNF=        1674 NShFF=           0 NBatch=         174 AvBLen=         9.6
 IPart=  3 NShTot=        1667 NShNF=        1667 NShFF=           0 NBatch=         173 AvBLen=         9.6
 IPart=  5 NShTot=        1664 NShNF=        1664 NShFF=           0 NBatch=         169 AvBLen=         9.8
 IPart=  0 NShTot=        1789 NShNF=        1789 NShFF=           0 NBatch=         184 AvBLen=         9.7
 CoulSu:  NxtVal=            103.
 Polarizability after L703:
                1             2             3 
      1  0.124608D+02
      2  0.313139D-01  0.128381D+02
      3  0.146031D+01 -0.183421D+00  0.104079D+02
 Dipole Derivatives after L703:
                 1             2             3             4             5 
      1   0.211095D+01  0.101276D-01  0.370357D+00 -0.400133D+00  0.120553D+00
      2   0.276648D-02  0.237541D+01  0.515395D-01  0.106267D+00 -0.282927D+00
      3   0.392061D+00  0.318105D-01  0.139806D+01 -0.112073D+00  0.425317D-01
                 6             7             8             9            10 
      1  -0.312013D+00 -0.502044D+00 -0.174580D+00 -0.196223D-01 -0.173779D-03
      2   0.134297D+00 -0.258450D+00 -0.371016D+00  0.148891D-01  0.123150D-05
      3  -0.228271D+00 -0.211044D+00 -0.889460D-01 -0.896290D-01 -0.637507D-05
                11            12            13            14            15 
      1   0.000000D+00 -0.570155D-05 -0.208598D+00  0.438983D-01 -0.387158D-01
      2   0.908413D-04 -0.206022D-05  0.149415D+00 -0.721556D+00 -0.200723D+00
      3  -0.150533D-05  0.862206D-04 -0.689375D-01  0.146053D-01 -0.802441D-01
 Hessian after L703:
                1             2             3             4             5 
      1  0.728609D+00
      2  0.105445D-01  0.102619D+01
      3  0.125397D+00  0.960792D-01  0.377988D+00
      4 -0.229938D+00  0.596383D-01 -0.831577D-01  0.321434D+00
      5  0.644771D-01 -0.155171D+00  0.438696D-01 -0.119439D+00  0.197971D+00
      6 -0.119175D+00  0.581579D-01 -0.179277D+00  0.171820D+00 -0.798208D-01
      7 -0.379131D+00 -0.187586D+00 -0.548508D-01 -0.797384D-01 -0.199108D-01
      8 -0.178623D+00 -0.239340D+00 -0.287470D-01 -0.772857D-02  0.284166D-01
      9 -0.240962D-01 -0.125441D-01 -0.937010D-01 -0.597714D-01 -0.604116D-02
     10  0.000000D+00  0.000000D+00  0.000000D+00  0.000000D+00  0.000000D+00
     11  0.000000D+00  0.000000D+00  0.000000D+00  0.000000D+00  0.000000D+00
     12  0.000000D+00  0.000000D+00  0.000000D+00  0.000000D+00  0.000000D+00
     13 -0.119540D+00  0.117403D+00  0.126109D-01 -0.117571D-01  0.748724D-01
     14  0.103602D+00 -0.631674D+00 -0.111202D+00  0.675291D-01 -0.712174D-01
     15  0.178741D-01 -0.141693D+00 -0.105010D+00 -0.288906D-01  0.419923D-01
                6             7             8             9            10 
      6  0.163970D+00
      7 -0.381471D-01  0.450317D+00
      8  0.559755D-03  0.256177D+00  0.314196D+00
      9 -0.244759D-03  0.954915D-01  0.520814D-01  0.676616D-01
     10  0.000000D+00  0.000000D+00  0.000000D+00  0.000000D+00  0.000000D+00
     11  0.000000D+00  0.000000D+00  0.000000D+00  0.000000D+00  0.000000D+00
     12  0.000000D+00  0.000000D+00  0.000000D+00  0.000000D+00  0.000000D+00
     13 -0.144972D-01  0.855289D-02 -0.698254D-01 -0.116238D-01  0.000000D+00
     14  0.211032D-01 -0.486808D-01 -0.103273D+00 -0.334961D-01  0.000000D+00
     15  0.155517D-01 -0.249360D-02 -0.238941D-01  0.262842D-01  0.000000D+00
               11            12            13            14            15 
     11  0.000000D+00
     12  0.000000D+00  0.000000D+00
     13  0.000000D+00  0.000000D+00  0.122744D+00
     14  0.000000D+00  0.000000D+00 -0.122450D+00  0.806164D+00
     15  0.000000D+00  0.000000D+00  0.135100D-01  0.123595D+00  0.631743D-01
 Leave Link  703 at Sat Mar  4 13:45:52 2017, MaxMem=   655360000 cpu:         3.3
 (Enter /mnt/software/gaussian/g09/l716.exe)
 FrcOut:
 IF    =    42 IFX   =    57 IFXYZ =    72
 IFFX  =    87 IFFFX =   207 IFLen =    15
 IFFLen=   120 IFFFLn=     0 IEDerv=   207
 LEDerv=   773 IFroze=  1169 ICStrt= 12633
 Dipole        =-5.49716822D+00 9.96849231D-02-6.88226244D-01
 DipoleDeriv   = 2.11094866D+00 2.76647818D-03 3.92061091D-01
                 1.01276157D-02 2.37540835D+00 3.18104957D-02
                 3.70356832D-01 5.15395378D-02 1.39805756D+00
                -4.00133117D-01 1.06266593D-01-1.12072952D-01
                 1.20553109D-01-2.82926755D-01 4.25316988D-02
                -3.12012999D-01 1.34296820D-01-2.28270643D-01
                -5.02043985D-01-2.58449641D-01-2.11044225D-01
                -1.74579763D-01-3.71015961D-01-8.89459884D-02
                -1.96222942D-02 1.48891312D-02-8.96289934D-02
                -1.73779273D-04 1.23150498D-06-6.37507068D-06
                 7.23079730D-07 9.08413054D-05-1.50533335D-06
                -5.70154670D-06-2.06022284D-06 8.62206313D-05
                -2.08597777D-01 1.49415338D-01-6.89375388D-02
                 4.38983152D-02-7.21556473D-01 1.46052992D-02
                -3.87158373D-02-2.00723429D-01-8.02441437D-02
 Polarizability= 1.24607802D+01 3.13138603D-02 1.28381285D+01
                 1.46030782D+00-1.83420947D-01 1.04079166D+01
 PolarDeriv    = 2.16964078D+00 5.50458972D-01 9.17980788D-01
                -1.86735293D+00 2.01364938D-01-4.83313969D-03
                 4.73308010D-01 8.45979490D-01-1.26768680D-01
                 2.80774927D-01-1.91834255D+00 1.16981470D-01
                -1.78828641D+00 2.14430690D-01-1.82550376D+00
                -2.16766489D-01 3.23984371D-01-4.63070055D+00
                 3.35261673D+00-8.41000220D-01 7.80654984D-01
                 1.98279083D+00-3.75884056D-01 1.13488370D+00
                -4.99409574D-01 1.42020559D+00-1.95184435D+00
                -4.11458273D-01 1.27190754D+00-6.49038035D-01
                 1.41622644D+00-1.95575305D-01 1.02533817D+00
                 1.70299951D+00-8.51208305D-01 3.27796320D+00
                -4.60139758D+00-1.32718428D+00-1.23415474D+00
                -3.49840579D-01 5.28860897D-02-7.47108515D-01
                -1.16468394D+00-1.68079321D+00-2.77622740D+00
                 3.28475620D-02-1.31334213D-01-2.73224724D-01
                -1.68453052D-01-1.47522453D-01 1.33627868D-01
                -1.22249955D+00-7.79006272D-01 1.63756493D-01
                -4.13558744D-04-8.73209038D-05 1.67417987D-04
                 2.94756149D-05 6.16271042D-06 1.73415225D-04
                -1.11269214D-05-1.36919874D-03-2.98559369D-05
                 6.63718913D-04 3.72270895D-06 1.20014465D-05
                 3.84428310D-05 6.58362604D-04 5.54031052D-06
                -8.64518302D-05 1.09284299D-06 2.25414816D-05
                -9.20446375D-01 1.61781285D+00-4.64648452D-01
                 2.34373207D-01 1.21626866D-01-3.83115455D-01
                 1.19079663D+00-5.84022675D-01 4.85487029D+00
                 9.71720649D-02 7.77765507D-01 8.05269288D-01
                 5.40474579D-01 1.28008705D-01 6.66532186D-01
                -2.63647023D-01 1.30622911D+00 1.18895831D+00
 HyperPolar    = 8.90432919D+00 5.68536567D+00 4.37860771D+00
                -5.95874255D+00-6.31196846D+00 2.96688897D+00
                -7.66788353D+00-4.23179121D+00 1.83395068D+00
                -1.24825382D+01
 VibFq2-Diag1:  N=     15 IV=           6 MDV=   655346161 NE2=    43689743
 Full mass-weighted force constant matrix:
 Low frequencies ---  -81.7070  -49.5701   -0.7756   -0.0014   -0.0011   -0.0011
 Low frequencies ---    0.3820    0.5900  165.0080
 OrtVCM:  Ph=1 IPass= 1 DotMx1= 0.00D+00
 OrtVCM:  IS=    1 I=    1 IndO=    1 Dot= 1.00D+00 DotN= 1.00D+00 ElMax1= 4.65D-01 ElMax1N= 4.65D-01
 OrtVCM:  Ph=2 NNew=    0 IAdd=    2 IPass= 1 DotMx2= 0.00D+00
 OrtVCM:  IS=    1 I=    2 IndO=    2 Dot= 1.00D+00 DotN= 1.00D+00 ElMax1= 4.65D-01 ElMax1N= 4.65D-01
 OrtVCM:  Ph=2 NNew=    0 IAdd=    3 IPass= 1 DotMx2= 0.00D+00
 OrtVCM:  IS=    1 I=    3 IndO=    3 Dot= 1.00D+00 DotN= 1.00D+00 ElMax1= 4.65D-01 ElMax1N= 4.65D-01
 OrtVCM:  Ph=2 NNew=    0 IAdd=    4 IPass= 1 DotMx2= 5.55D-17
 OrtVCM:  IS=    1 I=    4 IndO=    4 Dot= 1.00D+00 DotN= 1.00D+00 ElMax1= 7.32D-01 ElMax1N= 7.32D-01
 OrtVCM:  Ph=2 NNew=    0 IAdd=    5 IPass= 1 DotMx2= 3.61D-16
 OrtVCM:  IS=    1 I=    5 IndO=    5 Dot= 1.00D+00 DotN= 1.00D+00 ElMax1= 8.79D-01 ElMax1N= 8.79D-01
 OrtVCM:  Ph=2 NNew=    0 IAdd=    6 IPass= 1 DotMx2= 5.55D-17
 OrtVCM:  IS=    1 I=    6 IndO=    6 Dot= 1.00D+00 DotN= 1.00D+00 ElMax1= 8.75D-01 ElMax1N= 8.75D-01
 OrtVCM:  Ph=1 IPass= 1 DotMx1= 4.65D-01
 OrtVCM:  Ph=1 IPass= 2 DotMx1= 8.67D-17
 OrtVCM:  IS=    1 I=    1 IndO=    7 Dot= 8.63D-01 DotN= 8.63D-01 ElMax1= 8.63D-01 ElMax1N= 8.63D-01
 OrtVCM:  Ph=2 NNew=    0 IAdd=    2 IPass= 1 DotMx2= 1.80D-04
 OrtVCM:  Ph=2 NNew=    0 IAdd=    2 IPass= 2 DotMx2= 3.79D-19
 OrtVCM:  IS=    1 I=    2 IndO=    8 Dot= 8.12D-01 DotN= 8.12D-01 ElMax1= 8.12D-01 ElMax1N= 8.12D-01
 OrtVCM:  Ph=2 NNew=    0 IAdd=    3 IPass= 1 DotMx2= 3.34D-03
 OrtVCM:  Ph=2 NNew=    0 IAdd=    3 IPass= 2 DotMx2= 3.47D-18
 OrtVCM:  IS=    1 I=    3 IndO=    9 Dot= 8.29D-01 DotN= 8.29D-01 ElMax1= 8.29D-01 ElMax1N= 8.29D-01
 OrtVCM:  Ph=2 NNew=    0 IAdd=    4 IPass= 1 DotMx2= 1.84D-01
 OrtVCM:  Ph=2 NNew=    0 IAdd=    4 IPass= 2 DotMx2= 2.20D-17
 OrtVCM:  IS=    1 I=    4 IndO=   10 Dot= 7.47D-01 DotN= 7.47D-01 ElMax1= 7.47D-01 ElMax1N= 7.47D-01
 OrtVCM:  Ph=2 NNew=    0 IAdd=    5 IPass= 1 DotMx2= 1.73D-01
 OrtVCM:  Ph=2 NNew=    0 IAdd=    5 IPass= 2 DotMx2= 6.94D-17
 OrtVCM:  IS=    1 I=    5 IndO=   11 Dot= 6.09D-01 DotN= 6.09D-01 ElMax1= 6.09D-01 ElMax1N= 6.09D-01
 OrtVCM:  Ph=2 NNew=    0 IAdd=    6 IPass= 1 DotMx2= 2.19D-01
 OrtVCM:  Ph=2 NNew=    0 IAdd=    6 IPass= 2 DotMx2= 1.39D-17
 OrtVCM:  IS=    1 I=    6 IndO=   12 Dot= 5.99D-01 DotN= 5.99D-01 ElMax1= 5.99D-01 ElMax1N= 5.99D-01
 OrtVCM:  Ph=2 NNew=    0 IAdd=    7 IPass= 1 DotMx2= 2.90D-01
 OrtVCM:  Ph=2 NNew=    0 IAdd=    7 IPass= 2 DotMx2= 9.71D-17
 OrtVCM:  IS=    1 I=    7 IndO=   13 Dot= 6.61D-01 DotN= 6.61D-01 ElMax1= 6.61D-01 ElMax1N= 6.61D-01
 OrtVCM:  Ph=2 NNew=    0 IAdd=    8 IPass= 1 DotMx2= 3.10D-01
 OrtVCM:  Ph=2 NNew=    0 IAdd=    8 IPass= 2 DotMx2= 2.78D-17
 OrtVCM:  IS=    1 I=    8 IndO=   14 Dot= 4.56D-01 DotN= 4.56D-01 ElMax1= 4.79D-01 ElMax1N= 4.79D-01
 OrtVCM:  Ph=2 NNew=    0 IAdd=    9 IPass= 1 DotMx2= 6.18D-01
 OrtVCM:  Ph=2 NNew=    0 IAdd=    9 IPass= 2 DotMx2= 1.74D-16
 OrtVCM:  IS=    1 I=    9 IndO=    0 Dot= 2.26D-33 DotN= 2.26D-33 ElMax1= 2.40D-17 ElMax1N= 2.40D-17
 SchOr2:  IPass= 1 Test2A= 1.00D-01 IOff=     0 NDo=     9 NNew=     8
 OrtVCM:  Ph=1 IPass= 1 DotMx1= 4.65D-01
 OrtVCM:  Ph=1 IPass= 2 DotMx1= 3.01D-16
 OrtVCM:  IS=    1 I=    1 IndO=   15 Dot= 4.97D-01 DotN= 4.97D-01 ElMax1= 4.97D-01 ElMax1N= 4.97D-01
 SchOr2:  IPass= 1 Test2A= 1.00D-01 IOff=     9 NDo=     1 NNew=     1
 VibFq2-Diag2:  N=      9 IV=           6 MDV=   655346161 NE2=    72816239
 ******    2 imaginary frequencies (negative Signs) ****** 
 Dipole derivatives wrt mode   1:  2.21406D-01  6.00180D-01  2.72668D-02
 Polarizability derivatives wrt mode          1
                 1             2             3 
      1   0.210075D-02 -0.175399D-01  0.465906D-02
      2  -0.175399D-01 -0.419802D-02  0.417279D-01
      3   0.465906D-02  0.417279D-01  0.913149D-02
 Vibrational polarizability contributions from mode   1       0.2407249       1.7689089       0.0036510
 IFr=  0 A012= 0.74D-04 0.38D-01 0.64D-02 Act= 0.45D-01 DepolP= 0.74D+00 DepolU= 0.85D+00
 Dipole derivatives wrt mode   2: -1.74802D+00  4.83675D-05  9.59240D-03
 Polarizability derivatives wrt mode          2
                 1             2             3 
      1  -0.300315D-04 -0.663836D-05  0.225243D-05
      2  -0.663836D-05  0.121512D-04  0.000000D+00
      3   0.225243D-05  0.000000D+00  0.125614D-04
 Vibrational polarizability contributions from mode   2  136963.8522655       0.0001049       4.1244778
 IFr=  0 A012= 0.42D-10 0.12D-07 0.20D-08 Act= 0.14D-07 DepolP= 0.74D+00 DepolU= 0.85D+00
 Dipole derivatives wrt mode   3:  2.72097D-01 -1.80662D-02  3.90470D-01
 Polarizability derivatives wrt mode          3
                 1             2             3 
      1  -0.764159D-01  0.114205D-01  0.595537D-01
      2   0.114205D-01  0.321688D-02  0.141979D-02
      3   0.595537D-01  0.141979D-02  0.675927D-01
 Vibrational polarizability contributions from mode   3       0.0742645       0.0003274       0.1529356
 IFr=  0 A012= 0.47D-04 0.16D+00 0.27D-01 Act= 0.19D+00 DepolP= 0.75D+00 DepolU= 0.86D+00
 Dipole derivatives wrt mode   4:  2.94898D-01 -3.58571D+00  5.35628D-02
 Polarizability derivatives wrt mode          4
                 1             2             3 
      1   0.185574D+00  0.177572D-01  0.857395D-01
      2   0.177572D-01 -0.156577D+00  0.377312D-01
      3   0.857395D-01  0.377312D-01  0.524968D-01
 Vibrational polarizability contributions from mode   4       0.0058250       0.8611953       0.0001922
 IFr=  0 A012= 0.10D-01 0.72D+00 0.12D+00 Act= 0.85D+00 DepolP= 0.70D+00 DepolU= 0.82D+00
 Dipole derivatives wrt mode   5: -3.41015D+00 -5.78399D-01 -1.46833D+00
 Polarizability derivatives wrt mode          5
                 1             2             3 
      1  -0.458674D-01  0.164533D+00 -0.664142D-02
      2   0.164533D+00  0.160431D-01  0.875041D-01
      3  -0.664142D-02  0.875041D-01 -0.421211D-02
 Vibrational polarizability contributions from mode   5       0.7223851       0.0207816       0.1339270
 IFr=  0 A012= 0.17D-02 0.65D+00 0.11D+00 Act= 0.76D+00 DepolP= 0.74D+00 DepolU= 0.85D+00
 Dipole derivatives wrt mode   6: -3.50356D+00 -2.34161D-01  8.28505D+00
 Polarizability derivatives wrt mode          6
                 1             2             3 
      1  -0.199793D-01 -0.414001D-02  0.980959D-01
      2  -0.414001D-02  0.317760D-01  0.188585D-01
      3   0.980959D-01  0.188585D-01 -0.248601D+00
 Vibrational polarizability contributions from mode   6       0.4547412       0.0020313       2.5429428
 IFr=  0 A012= 0.84D-01 0.75D+00 0.12D+00 Act= 0.96D+00 DepolP= 0.43D+00 DepolU= 0.61D+00
 Dipole derivatives wrt mode   7:  2.48980D+00 -4.23522D+00  6.55971D+00
 Polarizability derivatives wrt mode          7
                 1             2             3 
      1  -0.356622D+00  0.242470D-02 -0.120482D+00
      2   0.242470D-02 -0.355468D+00  0.630079D-01
      3  -0.120482D+00  0.630079D-01 -0.349435D+00
 Vibrational polarizability contributions from mode   7       0.1369179       0.3961708       0.9503864
 IFr=  0 A012= 0.17D+01 0.37D+01 0.62D+00 Act= 0.60D+01 DepolP= 0.28D-01 DepolU= 0.55D-01
 Dipole derivatives wrt mode   8:  1.88850D+01 -1.20442D+00  6.70941D+00
 Polarizability derivatives wrt mode          8
                 1             2             3 
      1   0.203612D+00  0.951429D-01 -0.155768D+00
      2   0.951429D-01  0.131699D+00  0.580441D-01
      3  -0.155768D+00  0.580441D-01 -0.895674D-01
 Vibrational polarizability contributions from mode   8       4.2348772       0.0172252       0.5345344
 IFr=  0 A012= 0.91D-01 0.13D+01 0.21D+00 Act= 0.16D+01 DepolP= 0.53D+00 DepolU= 0.69D+00
 Dipole derivatives wrt mode   9:  1.70697D+00  2.13333D+01  2.35325D+00
 Polarizability derivatives wrt mode          9
                 1             2             3 
      1   0.316606D-01  0.108572D+00  0.183801D-01
      2   0.108572D+00 -0.136437D+00 -0.162917D+00
      3   0.183801D-01 -0.162917D+00 -0.634165D-01
 Vibrational polarizability contributions from mode   9       0.0252285       3.9405474       0.0479483
 IFr=  0 A012= 0.42D-01 0.91D+00 0.15D+00 Act= 0.11D+01 DepolP= 0.60D+00 DepolU= 0.75D+00
 Diagonal vibrational polarizability:
   136969.7472298       7.0072927       8.4909955
 Diagonal vibrational hyperpolarizability:
      265.0350735       3.4024050     -11.3381914
 NorSel:  MapVib=      1      2      3      4      5      6      7      8      9
 Harmonic frequencies (cm**-1), IR intensities (KM/Mole), Raman scattering
 activities (A**4/AMU), depolarization ratios for plane and unpolarized
 incident light, reduced masses (AMU), force constants (mDyne/A),
 and normal coordinates:
                           1         2         3         4         5
                           A         A         A         A         A
       Frequencies ---   -74.0279   -0.7748  163.7947  633.8557  658.1957
    Reduced masses ---    18.9107   18.5912   18.8865   18.2328   18.2409
   Force constants ---     0.0611    0.0000    0.2985    4.3160    4.6559
    IR Intensities ---     0.4100    3.0557    0.2268   12.9471   14.1196
  Raman Activities ---     0.0447    0.0000    0.1867    0.8488    0.7569
    Depol. (Plane) ---     0.7428    0.7366    0.7489    0.7001    0.7400
    Depol. (Unpol) ---     0.8524    0.8483    0.8564    0.8236    0.8506
 Coord Atom Element:
   1     1     6          0.02977  -0.24120   0.08599   0.03359  -0.30067
   2     1     6          0.10788   0.00001  -0.00675  -0.32905  -0.04694
   3     1     6         -0.00330   0.00133   0.09246  -0.00028  -0.12504
   1     2     9          0.23984  -0.24120  -0.35875   0.42738  -0.20764
   2     2     9          0.45729   0.00001  -0.00695   0.32870   0.47337
   3     2     9         -0.02768   0.00133   0.67650   0.19416  -0.13981
   1     3     9          0.36254  -0.24120   0.21417  -0.47710  -0.14023
   2     3     9         -0.34134   0.00000  -0.01597   0.30290  -0.46525
   3     3     9         -0.16198   0.00133  -0.57318  -0.23653  -0.06356
   1     4     9         -0.00005   0.87594  -0.00058   0.00000   0.00005
   2     4     9         -0.13232  -0.00002   0.00906   0.00541  -0.00466
   3     4     9         -0.00779  -0.00484  -0.10551  -0.00059   0.00867
   1     5     9         -0.62114  -0.24120   0.09084   0.02852   0.53774
   2     5     9         -0.05177   0.00000   0.01813  -0.42917   0.02618
   3     5     9          0.19953   0.00133  -0.05621   0.04314   0.27368
                           6         7         8         9
                           A         A         A         A
       Frequencies ---   852.3019 1103.8267 1505.4375 1762.9783
    Reduced masses ---    14.1078   16.2602   13.4346   13.4224
   Force constants ---     6.0380   11.6729   17.9391   24.5795
    IR Intensities ---    80.9718   67.1659  403.1093  463.5625
  Raman Activities ---     0.9577    6.0228    1.5626    1.1027
    Depol. (Plane) ---     0.4349    0.0284    0.5285    0.5964
    Depol. (Unpol) ---     0.6062    0.0553    0.6915    0.7472
 Coord Atom Element:
   1     1     6         -0.33446   0.02898   0.86118   0.04861
   2     1     6         -0.01623  -0.22612  -0.05440   0.87932
   3     1     6          0.76596   0.58248   0.22454   0.14557
   1     2     9          0.28391  -0.36449  -0.15693   0.01181
   2     2     9         -0.09892   0.23151   0.06049  -0.03741
   3     2     9         -0.08387  -0.31654  -0.10912   0.01941
   1     3     9         -0.11086   0.30531  -0.31605  -0.11383
   2     3     9         -0.16795   0.28472  -0.18236  -0.12009
   3     3     9         -0.23500   0.02383  -0.04668  -0.00068
   1     4     9          0.00002  -0.00001  -0.00003   0.00000
   2     4     9         -0.00275   0.00100   0.00114  -0.00208
   3     4     9          0.00306  -0.00179  -0.00504  -0.00033
   1     5     9          0.03819   0.04088  -0.07094   0.07132
   2     5     9          0.27987  -0.37441   0.15510  -0.39583
   3     5     9         -0.16799  -0.07341   0.01901  -0.11034
 Harmonic frequencies (cm**-1), IR intensities (KM/Mole), Raman scattering
 activities (A**4/AMU), depolarization ratios for plane and unpolarized
 incident light, reduced masses (AMU), force constants (mDyne/A),
 and normal coordinates:
                      1                      2                      3
                      A                      A                      A
 Frequencies --    -74.0279                -0.7748               163.7947
 Red. masses --     18.9107                18.5912                18.8865
 Frc consts  --      0.0611                 0.0000                 0.2985
 IR Inten    --      0.4100                 3.0557                 0.2268
 Raman Activ --      0.0447                 0.0000                 0.1867
 Depolar (P) --      0.7428                 0.7366                 0.7489
 Depolar (U) --      0.8524                 0.8483                 0.8564
  Atom  AN      X      Y      Z        X      Y      Z        X      Y      Z
     1   6     0.03   0.11   0.00    -0.24   0.00   0.00     0.09  -0.01   0.09
     2   9     0.24   0.46  -0.03    -0.24   0.00   0.00    -0.36  -0.01   0.68
     3   9     0.36  -0.34  -0.16    -0.24   0.00   0.00     0.21  -0.02  -0.57
     4   9     0.00  -0.13  -0.01     0.88   0.00   0.00     0.00   0.01  -0.11
     5   9    -0.62  -0.05   0.20    -0.24   0.00   0.00     0.09   0.02  -0.06
                      4                      5                      6
                      A                      A                      A
 Frequencies --    633.8557               658.1957               852.3019
 Red. masses --     18.2328                18.2409                14.1078
 Frc consts  --      4.3160                 4.6559                 6.0380
 IR Inten    --     12.9471                14.1196                80.9718
 Raman Activ --      0.8488                 0.7569                 0.9577
 Depolar (P) --      0.7001                 0.7400                 0.4349
 Depolar (U) --      0.8236                 0.8506                 0.6062
  Atom  AN      X      Y      Z        X      Y      Z        X      Y      Z
     1   6     0.03  -0.33   0.00    -0.30  -0.05  -0.13    -0.33  -0.02   0.77
     2   9     0.43   0.33   0.19    -0.21   0.47  -0.14     0.28  -0.10  -0.08
     3   9    -0.48   0.30  -0.24    -0.14  -0.47  -0.06    -0.11  -0.17  -0.23
     4   9     0.00   0.01   0.00     0.00   0.00   0.01     0.00   0.00   0.00
     5   9     0.03  -0.43   0.04     0.54   0.03   0.27     0.04   0.28  -0.17
                      7                      8                      9
                      A                      A                      A
 Frequencies --   1103.8267              1505.4375              1762.9783
 Red. masses --     16.2602                13.4346                13.4224
 Frc consts  --     11.6729                17.9391                24.5795
 IR Inten    --     67.1659               403.1093               463.5625
 Raman Activ --      6.0228                 1.5626                 1.1027
 Depolar (P) --      0.0284                 0.5285                 0.5964
 Depolar (U) --      0.0553                 0.6915                 0.7472
  Atom  AN      X      Y      Z        X      Y      Z        X      Y      Z
     1   6     0.03  -0.23   0.58     0.86  -0.05   0.22     0.05   0.88   0.15
     2   9    -0.36   0.23  -0.32    -0.16   0.06  -0.11     0.01  -0.04   0.02
     3   9     0.31   0.28   0.02    -0.32  -0.18  -0.05    -0.11  -0.12   0.00
     4   9     0.00   0.00   0.00     0.00   0.00  -0.01     0.00   0.00   0.00
     5   9     0.04  -0.37  -0.07    -0.07   0.16   0.02     0.07  -0.40  -0.11

 -------------------
 - Thermochemistry -
 -------------------
 Temperature   298.150 Kelvin.  Pressure   1.00000 Atm.
 Atom     1 has atomic number  6 and mass  12.00000
 Atom     2 has atomic number  9 and mass  18.99840
 Atom     3 has atomic number  9 and mass  18.99840
 Atom     4 has atomic number  9 and mass  18.99840
 Atom     5 has atomic number  9 and mass  18.99840
 Molecular mass:    87.99361 amu.
 Principal axes and moments of inertia in atomic units:
                           1         2         3
     Eigenvalues --   171.87005********************
           X            1.00000  -0.00001   0.00017
           Y            0.00001   1.00000  -0.00008
           Z           -0.00017   0.00008   1.00000
 This molecule is an asymmetric top.
 Rotational symmetry number  1.
 Rotational temperatures (Kelvin)      0.50395     0.00807     0.00799
 Rotational constants (GHZ):          10.50061     0.16807     0.16639
    2 imaginary frequencies ignored.
 Zero-point vibrational energy      39957.6 (Joules/Mol)
                                    9.55010 (Kcal/Mol)
 Warning -- explicit consideration of   1 degrees of freedom as
           vibrations may cause significant error
 Vibrational temperatures:    235.66   911.98   947.00  1226.27  1588.16
          (Kelvin)           2165.99  2536.53
 
 Zero-point correction=                           0.015219 (Hartree/Particle)
 Thermal correction to Energy=                    0.019040
 Thermal correction to Enthalpy=                  0.019984
 Thermal correction to Gibbs Free Energy=        -0.015932
 Sum of electronic and zero-point Energies=           -435.085602
 Sum of electronic and thermal Energies=              -435.081781
 Sum of electronic and thermal Enthalpies=            -435.080837
 Sum of electronic and thermal Free Energies=         -435.116753
 
                     E (Thermal)             CV                S
                      KCal/Mol        Cal/Mol-Kelvin    Cal/Mol-Kelvin
 Total                   11.948             10.668             75.591
 Electronic               0.000              0.000              1.377
 Translational            0.889              2.981             39.337
 Rotational               0.889              2.981             31.371
 Vibrational             10.170              4.707              3.506
 Vibration     1          0.623              1.887              2.506
                       Q            Log10(Q)             Ln(Q)
 Total Bot       0.212836D+08          7.328046         16.873450
 Total V=0       0.212965D+15         14.328308         32.992148
 Vib (Bot)       0.204805D-06         -6.688659        -15.401206
 Vib (Bot)    1  0.123281D+01          0.090895          0.209293
 Vib (V=0)       0.204929D+01          0.311603          0.717493
 Vib (V=0)    1  0.183034D+01          0.262532          0.604503
 Electronic      0.200000D+01          0.301030          0.693147
 Translational   0.324438D+08          7.511132         17.295020
 Rotational      0.160156D+07          6.204543         14.286487
 
                                                          Distorted Ethanol
                                                             IR Spectrum
 
     1                  1                            1                                                                               
     7                  5                            1                 8             6 6                                 1           
     6                  0                            0                 5             5 3                                 6           
     3                  5                            4                 2             8 4                                 4           
 
     X                  X                            X                 X             X X                                 X           
     X                  X                            X                 X                                                             
     X                  X                            X                 X                                                             
     X                  X                                                                                                            
     X                  X                                                                                                            
     X                  X                                                                                                            
     X                  X                                                                                                            
     X                  X                                                                                                            
     X                  X                                                                                                            
     X                  X                                                                                                            
     X                  X                                                                                                            
     X                  X                                                                                                            
     X                  X                                                                                                            
     X                  X                                                                                                            
     X                  X                                                                                                            
     X                  X                                                                                                            
     X                  X                                                                                                            
     X                                                                                                                               
     X                                                                                                                               
     X                                                                                                                               
 
 
                                                          Distorted Ethanol
                                                            Raman Spectrum
 
     1                  1                            1                                                                               
     7                  5                            1                 8             6 6                                 1           
     6                  0                            0                 5             5 3                                 6           
     3                  5                            4                 2             8 4                                 4           
 
     X                  X                            X                 X             X X                                 X           
     X                  X                            X                 X             X X                                             
     X                  X                            X                 X             X X                                             
     X                  X                            X                                                                               
                        X                            X                                                                               
                                                     X                                                                               
                                                     X                                                                               
                                                     X                                                                               
                                                     X                                                                               
                                                     X                                                                               
                                                     X                                                                               
                                                     X                                                                               
                                                     X                                                                               
                                                     X                                                                               
                                                     X                                                                               
                                                     X                                                                               
                                                     X                                                                               
                                                     X                                                                               
                                                     X                                                                               
                                                     X                                                                               
 
 Forces in standard orientation:
 -------------------------------------------------------------------
 Center     Atomic                   Forces (Hartrees/Bohr)
 Number     Number              X              Y              Z
 -------------------------------------------------------------------
      1        6           0.045127041    0.054504773   -0.202415590
      2        9           0.002916017   -0.009257292    0.086180008
      3        9          -0.030783496    0.003027860    0.060694848
      4        9           0.000002182   -0.000000056    0.000000072
      5        9          -0.017261744   -0.048275284    0.055540662
 -------------------------------------------------------------------
 ***** Axes restored to original set *****
 Rotating derivatives, DoTrsp=F IDiff=-2 LEDeriv=    772 LFDPrp=       0 LDFDPr=       0.
 -------------------------------------------------------------------
 Center     Atomic                   Forces (Hartrees/Bohr)
 Number     Number              X              Y              Z
 -------------------------------------------------------------------
      1        6           0.211847337   -0.010627276   -0.031417483
      2        9          -0.079936508    0.028007778    0.018625610
      3        9          -0.059415136   -0.008458568    0.032232753
      4        9           0.000000374    0.000002023   -0.000000733
      5        9          -0.072496066   -0.008923958   -0.019440147
 -------------------------------------------------------------------
 Cartesian Forces:  Max     0.211847337 RMS     0.065245372
 Z-matrix is all fixed cartesians, so copy forces.
 Force constants in Cartesian coordinates: 
                1             2             3             4             5 
      1  0.383431D+00
      2  0.284826D-01  0.798867D+00
      3  0.188350D+00  0.886953D-01  0.950484D+00
      4 -0.165469D+00  0.105419D+00 -0.656038D-01  0.148470D+00
      5  0.764409D-01 -0.248096D+00  0.712079D-01 -0.140217D+00  0.340495D+00
      6 -0.429553D-01  0.580873D-01 -0.150821D+00  0.108638D+00 -0.124530D+00
      7 -0.131139D+00 -0.128195D+00 -0.489280D-01  0.188666D-01  0.311118D-01
      8 -0.984879D-01 -0.443990D+00 -0.103987D+00  0.581069D-02 -0.101148D+00
      9 -0.379128D-01 -0.871089D-01 -0.137044D+00  0.461093D-03  0.102714D-01
     10  0.000000D+00  0.000000D+00  0.000000D+00  0.000000D+00  0.000000D+00
     11  0.000000D+00  0.000000D+00  0.000000D+00  0.000000D+00  0.000000D+00
     12  0.000000D+00  0.000000D+00  0.000000D+00  0.000000D+00  0.000000D+00
     13 -0.868236D-01 -0.570679D-02 -0.738181D-01 -0.186812D-02  0.326640D-01
     14 -0.643564D-02 -0.106782D+00 -0.559164D-01  0.289869D-01  0.874974D-02
     15 -0.107482D+00 -0.596734D-01 -0.662619D+00 -0.434952D-01  0.430506D-01
                6             7             8             9            10 
      6  0.194410D+00
      7 -0.208112D-02  0.944147D-01
      8  0.666875D-02  0.127069D+00  0.572448D+00
      9  0.307151D-01  0.760735D-01  0.163083D+00  0.165312D+00
     10  0.000000D+00  0.000000D+00  0.000000D+00  0.000000D+00  0.000000D+00
     11  0.000000D+00  0.000000D+00  0.000000D+00  0.000000D+00  0.000000D+00
     12  0.000000D+00  0.000000D+00  0.000000D+00  0.000000D+00  0.000000D+00
     13 -0.636015D-01  0.178572D-01 -0.343916D-01 -0.386218D-01  0.000000D+00
     14  0.597738D-01 -0.299856D-01 -0.273095D-01 -0.862457D-01  0.000000D+00
     15 -0.743044D-01 -0.250644D-01 -0.657656D-01 -0.589833D-01  0.000000D+00
               11            12            13            14            15 
     11  0.000000D+00
     12  0.000000D+00  0.000000D+00
     13  0.000000D+00  0.000000D+00  0.708345D-01
     14  0.000000D+00  0.000000D+00  0.743432D-02  0.125342D+00
     15  0.000000D+00  0.000000D+00  0.176041D+00  0.823883D-01  0.795906D+00
 Final forces over variables, Energy=-4.35100821D+02:
  2.11847337D-01-7.99365082D-02-5.94151361D-02 3.73936344D-07
 -7.24960662D-02-1.06272757D-02 2.80077782D-02-8.45856786D-03
  2.02298692D-06-8.92395762D-03-3.14174833D-02 1.86256101D-02
  3.22327531D-02-7.32566485D-07-1.94401474D-02
 Leave Link  716 at Sat Mar  4 13:45:52 2017, MaxMem=   655360000 cpu:         0.2
 (Enter /mnt/software/gaussian/g09/l103.exe)

 GradGradGradGradGradGradGradGradGradGradGradGradGradGradGradGradGradGrad
 Berny optimization.
 Search for a local minimum.
 Step number   1 out of a maximum of    2
 All quantities printed in internal units (Hartrees-Bohrs-Radians)
 Second derivative matrix not updated -- analytic derivatives used.
 The second derivative matrix:
                          X1        Y1        Z1        X2        Y2
           X1           0.38343
           Y1           0.02848   0.79887
           Z1           0.18835   0.08870   0.95048
           X2          -0.16547   0.10542  -0.06560   0.14847
           Y2           0.07644  -0.24810   0.07121  -0.14022   0.34049
           Z2          -0.04296   0.05809  -0.15082   0.10864  -0.12453
           X3          -0.13114  -0.12820  -0.04893   0.01887   0.03111
           Y3          -0.09849  -0.44399  -0.10399   0.00581  -0.10115
           Z3          -0.03791  -0.08711  -0.13704   0.00046   0.01027
           X4           0.00000   0.00000   0.00000   0.00000   0.00000
           Y4           0.00000   0.00000   0.00000   0.00000   0.00000
           Z4           0.00000   0.00000   0.00000   0.00000   0.00000
           X5          -0.08682  -0.00571  -0.07382  -0.00187   0.03266
           Y5          -0.00644  -0.10678  -0.05592   0.02899   0.00875
           Z5          -0.10748  -0.05967  -0.66262  -0.04350   0.04305
                          Z2        X3        Y3        Z3        X4
           Z2           0.19441
           X3          -0.00208   0.09441
           Y3           0.00667   0.12707   0.57245
           Z3           0.03072   0.07607   0.16308   0.16531
           X4           0.00000   0.00000   0.00000   0.00000   0.00000
           Y4           0.00000   0.00000   0.00000   0.00000   0.00000
           Z4           0.00000   0.00000   0.00000   0.00000   0.00000
           X5          -0.06360   0.01786  -0.03439  -0.03862   0.00000
           Y5           0.05977  -0.02999  -0.02731  -0.08625   0.00000
           Z5          -0.07430  -0.02506  -0.06577  -0.05898   0.00000
                          Y4        Z4        X5        Y5        Z5
           Y4           0.00000
           Z4           0.00000   0.00000
           X5           0.00000   0.00000   0.07083
           Y5           0.00000   0.00000   0.00743   0.12534
           Z5           0.00000   0.00000   0.17604   0.08239   0.79591
 ITU=  0
     Eigenvalues ---   -0.00392   0.00000   0.01920   0.27675   0.29885
     Eigenvalues ---    0.38559   0.78824   1.21149   1.64303
 Eigenvalue     1 is  -3.92D-03 should be greater than     0.000000 Eigenvector:
                          Y5        Z3        X5        Z2        Y2
   1                    0.52488   0.47776   0.33049  -0.31772  -0.31130
                          X2        Z5        Y3        Z4        Z1
   1                   -0.25566  -0.21478  -0.20565   0.12091  -0.08103
 Eigenvalue     2 is  -4.23D-07 should be greater than     0.000000 Eigenvector:
                          Y4        Z4        Y5        Y1        Y3
   1                    0.81565  -0.28788  -0.21372  -0.21372  -0.21372
                          Y2        X4        Z5        Z2        Z1
   1                   -0.21372   0.19075   0.07543   0.07543   0.07543
 Quadratic step=5.884D+00 exceeds max=3.000D-01 adjusted using Lamda=-4.106D-01.
 Angle between NR and scaled steps=  83.62 degrees.
 Angle between quadratic step and forces=  10.25 degrees.
 Linear search not attempted -- first point.
 TrRot= -0.007272  0.000741  0.002161 -1.388138  0.000096  1.388572
 MatCor failed.
 Variable       Old X    -DE/DX   Delta X   Delta X   Delta X     New X
                                 (Linear)    (Quad)   (Total)
    X1       -0.49625   0.21185   0.00000   0.25620   0.24465  -0.25160
    Y1        9.80002  -0.01063   0.00000  -0.00667  -0.00588   9.79414
    Z1       -1.56747  -0.03142   0.00000  -0.07203  -0.06895  -1.63642
    X2        0.90094  -0.07994   0.00000  -0.06873  -0.07949   0.82145
    Y2        7.99411   0.02801   0.00000   0.01574   0.01691   8.01102
    Z2       -0.68978   0.01863   0.00000   0.03451   0.03741  -0.65237
    X3        0.30953  -0.05942   0.00000  -0.05658  -0.06904   0.24049
    Y3       11.93036  -0.00846   0.00000   0.00281   0.00375  11.93411
    Z3       -0.96342   0.03223   0.00000   0.04659   0.04987  -0.91354
    X4       -5.73114   0.00000   0.00000   0.00032  -0.00046  -5.73160
    Y4      -14.71090   0.00000   0.00000   0.00250   0.00011 -14.71079
    Z4        6.88864   0.00000   0.00000  -0.00122  -0.00034   6.88829
    X5       -0.78109  -0.07250   0.00000  -0.08419  -0.09567  -0.87675
    Y5        9.56450  -0.00892   0.00000  -0.01560  -0.01488   9.54962
    Z5       -3.82391  -0.01944   0.00000  -0.02107  -0.01799  -3.84190
         Item               Value     Threshold  Converged?
 Maximum Force            0.211847     0.000450     NO 
 RMS     Force            0.065245     0.000300     NO 
 Maximum Displacement     0.244652     0.001800     NO 
 RMS     Displacement     0.077292     0.001200     NO 
 Predicted change in Energy=-5.585662D-02
 GradGradGradGradGradGradGradGradGradGradGradGradGradGradGradGradGradGrad

 Leave Link  103 at Sat Mar  4 13:45:52 2017, MaxMem=   655360000 cpu:         0.1
 (Enter /mnt/software/gaussian/g09/l9999.exe)

 Test job not archived.
 1\1\GINC-TP-LINUX1\Freq\UHF\6-31G(d)\C1F4(1+,2)\THOMAS\04-Mar-2017\0\\
 #P UHF/6-31g* IOP(7/33=1) IOP(7/8=11) Freq\\Distorted Ethanol\\1,2\C,-
 0.262606,5.185948,-0.82947\F,0.476756,4.230303,-0.365017\F,0.163794,6.
 313275,-0.509818\F,-3.032788,-7.784671,3.645309\F,-0.413333,5.061316,-
 2.023525\\Version=ES64L-G09RevD.01\State=2-A\HF=-435.1008209\S2=0.7526
 73\S2-1=0.\S2A=0.750003\RMSD=9.941e-09\RMSF=6.525e-02\ZeroPoint=0.0152
 19\Thermal=0.0190398\Dipole=0.5080254,5.2667628,-1.644862\DipoleDeriv=
 1.4141452,-0.0554039,0.3952392,-0.0707035,2.2836191,0.0758045,0.420553
 7,0.0695123,2.1866503,-0.2087184,0.2392602,-0.2020193,0.0864813,-0.442
 8485,0.1587995,-0.0688037,0.072121,-0.2597637,-0.1198528,-0.1939131,-0
 .1413153,-0.017106,-0.6148205,-0.1945962,-0.0610858,-0.0651331,-0.2280
 157,0.0000791,-0.0000455,0.0000189,-0.0000449,-0.0001381,0.0000774,0.0
 000181,0.0000774,0.0000623,-0.0856531,0.0101022,-0.0519236,0.0013731,-
 0.225812,-0.0400852,-0.2906824,-0.0765776,-0.6989333\Polar=10.4748075,
 -0.4629722,13.1144235,1.3693477,0.1069109,12.1175942\PolarDeriv=-4.505
 6756,0.3414484,-2.3276617,0.0666139,0.0726769,-1.3553025,0.1686497,-2.
 3632658,-0.4520712,0.0863052,0.3736515,-0.0448843,0.2987849,0.0711457,
 0.4306326,-1.5267224,0.0361789,2.515341,2.8954125,-1.6585819,1.3569882
 ,0.8539356,-0.2208878,0.9754253,-1.0906891,1.7434459,-4.2192897,-0.430
 8019,0.7723705,-0.6817551,0.5002999,-0.5030366,0.5139897,1.2764929,-1.
 3660865,1.6024315,1.6182178,1.4299993,0.8497044,0.4387474,0.1342228,0.
 7247713,0.8814729,0.9758273,5.1379404,0.2918703,0.4942858,0.9393692,0.
 08443,0.3614796,0.408398,0.6629536,1.5301633,1.084843,0.0003136,0.0007
 723,0.0003684,-0.0000648,0.0007521,-0.0005957,-0.0000532,0.00029,0.000
 2758,-0.0000672,-0.0000587,-0.0001703,0.0004118,0.0007937,-0.0000352,-
 0.0001125,0.0006839,-0.0003958,-0.0082683,-0.1136381,0.1206007,-1.3592
 321,0.013236,-0.3442983,0.0406198,-0.3562974,-0.4668553,0.0526936,-1.6
 40249,-0.2125595,-0.8839266,0.0696176,-1.3529851,-0.4126116,-0.2009395
 ,-5.2022197\HyperPolar=-11.6175037,3.0529654,-11.3702518,-4.9299524,-2
 .1090969,1.2456201,-1.7306992,-3.1462271,1.5853591,13.9168308\PG=C01 [
 X(C1F4)]\NImag=2\\0.38343107,0.02848264,0.79886719,0.18835005,0.088695
 34,0.95048396,-0.16546871,0.10541898,-0.06560376,0.14847008,0.07644093
 ,-0.24809593,0.07120787,-0.14021667,0.34049471,-0.04295525,0.05808726,
 -0.15082110,0.10863781,-0.12452984,0.19441034,-0.13113852,-0.12819502,
 -0.04892799,0.01886664,0.03111180,-0.00208112,0.09441467,-0.09848792,-
 0.44398997,-0.10398654,0.00581069,-0.10114838,0.00666875,0.12706882,0.
 57244801,-0.03791282,-0.08710890,-0.13704370,0.00046109,0.01027137,0.0
 3071512,0.07607351,0.16308325,0.16531183,-0.00000028,0.00000020,-0.000
 00024,0.00000010,-0.00000007,0.00000003,0.00000002,-0.00000004,0.00000
 002,0.00000013,0.,0.00000062,-0.00000029,0.00000009,-0.00000014,0.0000
 0006,-0.00000003,-0.00000014,0.00000002,-0.00000006,-0.00000028,-0.000
 00018,-0.00000026,-0.00000022,0.00000003,0.00000002,0.,0.00000005,0.00
 000008,0.00000003,0.00000008,0.00000014,0.00000009,-0.08682356,-0.0057
 0679,-0.07381806,-0.00186812,0.03266401,-0.06360148,0.01785719,-0.0343
 9155,-0.03862179,0.00000003,0.,0.00000002,0.07083447,-0.00643564,-0.10
 678191,-0.05591639,0.02898692,0.00874974,0.05977376,-0.02998557,-0.027
 30951,-0.08624574,-0.00000002,-0.00000006,0.00000002,0.00743432,0.1253
 4175,-0.10748179,-0.05967345,-0.66261894,-0.04349518,0.04305058,-0.074
 30437,-0.02506445,-0.06576555,-0.05898327,0.00000011,0.00000007,0.0000
 0009,0.17604131,0.08238834,0.79590649\\-0.21184734,0.01062728,0.031417
 48,0.07993651,-0.02800778,-0.01862561,0.05941514,0.00845857,-0.0322327
 5,-0.00000037,-0.00000202,0.00000073,0.07249607,0.00892396,0.01944015\
 \\@


 MISERY NO LONGER LOVES COMPANY.  NOWADAYS IT INSISTS ON IT.

                                              -- BAKER'S LAW
 Job cpu time:       0 days  0 hours  0 minutes 20.0 seconds.
 File lengths (MBytes):  RWF=     12 Int=      0 D2E=      0 Chk=      2 Scr=      1
 Normal termination of Gaussian 09 at Sat Mar  4 13:45:52 2017.
