 Entering Gaussian System, Link 0=g09
 Input=/home/thomas/cf4/DD-vMCG/dd_data/gwp2_V1_dd_data.com
 Output=/home/thomas/cf4/DD-vMCG/dd_data/gwp2_V1_dd_data.log
 Initial command:
 /mnt/software/gaussian/g09/l1.exe "/scratch/Gau-32648.inp" -scrdir="/scratch/"
 Entering Link 1 = /mnt/software/gaussian/g09/l1.exe PID=     32650.
  
 Copyright (c) 1988,1990,1992,1993,1995,1998,2003,2009,2013,
            Gaussian, Inc.  All Rights Reserved.
  
 This is part of the Gaussian(R) 09 program.  It is based on
 the Gaussian(R) 03 system (copyright 2003, Gaussian, Inc.),
 the Gaussian(R) 98 system (copyright 1998, Gaussian, Inc.),
 the Gaussian(R) 94 system (copyright 1995, Gaussian, Inc.),
 the Gaussian 92(TM) system (copyright 1992, Gaussian, Inc.),
 the Gaussian 90(TM) system (copyright 1990, Gaussian, Inc.),
 the Gaussian 88(TM) system (copyright 1988, Gaussian, Inc.),
 the Gaussian 86(TM) system (copyright 1986, Carnegie Mellon
 University), and the Gaussian 82(TM) system (copyright 1983,
 Carnegie Mellon University). Gaussian is a federally registered
 trademark of Gaussian, Inc.
  
 This software contains proprietary and confidential information,
 including trade secrets, belonging to Gaussian, Inc.
  
 This software is provided under written license and may be
 used, copied, transmitted, or stored only in accord with that
 written license.
  
 The following legend is applicable only to US Government
 contracts under FAR:
  
                    RESTRICTED RIGHTS LEGEND
  
 Use, reproduction and disclosure by the US Government is
 subject to restrictions as set forth in subparagraphs (a)
 and (c) of the Commercial Computer Software - Restricted
 Rights clause in FAR 52.227-19.
  
 Gaussian, Inc.
 340 Quinnipiac St., Bldg. 40, Wallingford CT 06492
  
  
 ---------------------------------------------------------------
 Warning -- This program may not be used in any manner that
 competes with the business of Gaussian, Inc. or will provide
 assistance to any competitor of Gaussian, Inc.  The licensee
 of this program is prohibited from giving any competitor of
 Gaussian, Inc. access to this program.  By using this program,
 the user acknowledges that Gaussian, Inc. is engaged in the
 business of creating and licensing software in the field of
 computational chemistry and represents and warrants to the
 licensee that it is not a competitor of Gaussian, Inc. and that
 it will not use this program in any manner prohibited above.
 ---------------------------------------------------------------
  

 Cite this work as:
 Gaussian 09, Revision D.01,
 M. J. Frisch, G. W. Trucks, H. B. Schlegel, G. E. Scuseria, 
 M. A. Robb, J. R. Cheeseman, G. Scalmani, V. Barone, B. Mennucci, 
 G. A. Petersson, H. Nakatsuji, M. Caricato, X. Li, H. P. Hratchian, 
 A. F. Izmaylov, J. Bloino, G. Zheng, J. L. Sonnenberg, M. Hada, 
 M. Ehara, K. Toyota, R. Fukuda, J. Hasegawa, M. Ishida, T. Nakajima, 
 Y. Honda, O. Kitao, H. Nakai, T. Vreven, J. A. Montgomery, Jr., 
 J. E. Peralta, F. Ogliaro, M. Bearpark, J. J. Heyd, E. Brothers, 
 K. N. Kudin, V. N. Staroverov, T. Keith, R. Kobayashi, J. Normand, 
 K. Raghavachari, A. Rendell, J. C. Burant, S. S. Iyengar, J. Tomasi, 
 M. Cossi, N. Rega, J. M. Millam, M. Klene, J. E. Knox, J. B. Cross, 
 V. Bakken, C. Adamo, J. Jaramillo, R. Gomperts, R. E. Stratmann, 
 O. Yazyev, A. J. Austin, R. Cammi, C. Pomelli, J. W. Ochterski, 
 R. L. Martin, K. Morokuma, V. G. Zakrzewski, G. A. Voth, 
 P. Salvador, J. J. Dannenberg, S. Dapprich, A. D. Daniels, 
 O. Farkas, J. B. Foresman, J. V. Ortiz, J. Cioslowski, 
 and D. J. Fox, Gaussian, Inc., Wallingford CT, 2013.
 
 ******************************************
 Gaussian 09:  ES64L-G09RevD.01 24-Apr-2013
                 4-Mar-2017 
 ******************************************
 %mem=5000MB
 %Nprocshared=6
 Will use up to    6 processors via shared memory.
 %chk=gwp2_V1_dd_data.chk
 ------------------------------------------
 #P UHF/6-31g* IOP(7/33=1) IOP(7/8=11) Freq
 ------------------------------------------
 1/10=4,30=1,38=1/1,3;
 2/12=2,17=6,18=5,40=1/2;
 3/5=1,6=6,7=1,11=2,16=1,25=1,30=1,71=2,116=2,140=1/1,2,3;
 4//1;
 5/5=2,38=5,98=1/2;
 8/6=4,10=90,11=11/1;
 10/13=10,15=4/2;
 11/6=3,8=1,9=11,15=111,16=1/1,2,10;
 10/6=1/2;
 6/7=2,8=2,9=2,10=2,18=1,28=1/1;
 7/8=11,10=1,25=1,33=1/1,2,3,16;
 1/10=4,30=1/3;
 99//99;
 Leave Link    1 at Sat Mar  4 13:44:02 2017, MaxMem=   655360000 cpu:         0.1
 (Enter /mnt/software/gaussian/g09/l101.exe)
 -----------------
 Distorted Ethanol
 -----------------
 Symbolic Z-matrix:
 Charge =  1 Multiplicity = 2
 6                    -0.69552   6.20967  -0.63144 
 9                    -1.11722   5.7574    0.50335 
 9                     0.50628   6.22179  -0.83117 
 9                    -0.91797  -10.68942   2.5513 
 9                    -1.23414   5.81794  -1.64172 
 
 NAtoms=      5 NQM=        5 NQMF=       0 NMMI=      0 NMMIF=      0
                NMic=       0 NMicF=      0.
                    Isotopes and Nuclear Properties:
 (Nuclear quadrupole moments (NQMom) in fm**2, nuclear magnetic moments (NMagM)
  in nuclear magnetons)

  Atom         1           2           3           4           5
 IAtWgt=          12          19          19          19          19
 AtmWgt=  12.0000000  18.9984033  18.9984033  18.9984033  18.9984033
 NucSpn=           0           1           1           1           1
 AtZEff=   0.0000000   0.0000000   0.0000000   0.0000000   0.0000000
 NQMom=    0.0000000   0.0000000   0.0000000   0.0000000   0.0000000
 NMagM=    0.0000000   2.6288670   2.6288670   2.6288670   2.6288670
 AtZNuc=   6.0000000   9.0000000   9.0000000   9.0000000   9.0000000
 Leave Link  101 at Sat Mar  4 13:44:02 2017, MaxMem=   655360000 cpu:         0.4
 (Enter /mnt/software/gaussian/g09/l103.exe)

 GradGradGradGradGradGradGradGradGradGradGradGradGradGradGradGradGradGrad
 Berny optimization.
 Initialization pass.
 Trust Radius=3.00D-01 FncErr=1.00D-07 GrdErr=1.00D-07
 Number of steps in this run=      2 maximum allowed number of steps=      2.
 GradGradGradGradGradGradGradGradGradGradGradGradGradGradGradGradGradGrad

 Leave Link  103 at Sat Mar  4 13:44:02 2017, MaxMem=   655360000 cpu:         0.1
 (Enter /mnt/software/gaussian/g09/l202.exe)
                          Input orientation:                          
 ---------------------------------------------------------------------
 Center     Atomic      Atomic             Coordinates (Angstroms)
 Number     Number       Type             X           Y           Z
 ---------------------------------------------------------------------
      1          6           0       -0.695515    6.209673   -0.631439
      2          9           0       -1.117222    5.757404    0.503345
      3          9           0        0.506281    6.221790   -0.831169
      4          9           0       -0.917974  -10.689422    2.551303
      5          9           0       -1.234136    5.817945   -1.641715
 ---------------------------------------------------------------------
                    Distance matrix (angstroms):
                    1          2          3          4          5
     1  C    0.000000
     2  F    1.292331   0.000000
     3  F    1.218340   2.152288   0.000000
     4  F   17.197638  16.575039  17.304875   0.000000
     5  F    1.210050   2.149097   1.961919  17.034510   0.000000
 Stoichiometry    CF4(1+,2)
 Framework group  C1[X(CF4)]
 Deg. of freedom     9
 Full point group                 C1      NOp   1
 Largest Abelian subgroup         C1      NOp   1
 Largest concise Abelian subgroup C1      NOp   1
                         Standard orientation:                         
 ---------------------------------------------------------------------
 Center     Atomic      Atomic             Coordinates (Angstroms)
 Number     Number       Type             X           Y           Z
 ---------------------------------------------------------------------
      1          6           0        3.855935    0.085540   -0.063579
      2          9           0        3.187227    1.171515   -0.272397
      3          9           0        3.929162   -0.330036    1.079350
      4          9           0      -13.341042   -0.036843    0.024452
      5          9           0        3.654030   -0.861663   -0.789019
 ---------------------------------------------------------------------
 Rotational constants (GHZ):      6.4964653      0.1165774      0.1163913
 Leave Link  202 at Sat Mar  4 13:44:02 2017, MaxMem=   655360000 cpu:         0.0
 (Enter /mnt/software/gaussian/g09/l301.exe)
 Standard basis: 6-31G(d) (6D, 7F)
 Ernie: Thresh=  0.10000D-02 Tol=  0.10000D-05 Strict=F.
 There are    75 symmetry adapted cartesian basis functions of A   symmetry.
 There are    75 symmetry adapted basis functions of A   symmetry.
    75 basis functions,   140 primitive gaussians,    75 cartesian basis functions
    21 alpha electrons       20 beta electrons
       nuclear repulsion energy       140.1299334791 Hartrees.
 IExCor=    0 DFT=F Ex=HF Corr=None ExCW=0 ScaHFX=  1.000000
 ScaDFX=  1.000000  1.000000  1.000000  1.000000 ScalE2=  1.000000  1.000000
 IRadAn=      0 IRanWt=     -1 IRanGd=            0 ICorTp=0 IEmpDi=  4
 NAtoms=    5 NActive=    5 NUniq=    5 SFac= 1.00D+00 NAtFMM=   60 NAOKFM=F Big=F
 Integral buffers will be    131072 words long.
 Raffenetti 2 integral format.
 Two-electron integral symmetry is turned on.
 Leave Link  301 at Sat Mar  4 13:44:02 2017, MaxMem=   655360000 cpu:         0.3
 (Enter /mnt/software/gaussian/g09/l302.exe)
 NPDir=0 NMtPBC=     1 NCelOv=     1 NCel=       1 NClECP=     1 NCelD=      1
         NCelK=      1 NCelE2=     1 NClLst=     1 CellRange=     0.0.
 One-electron integrals computed using PRISM.
 NBasis=    75 RedAO= T EigKep=  3.43D-03  NBF=    75
 NBsUse=    75 1.00D-06 EigRej= -1.00D+00 NBFU=    75
 Leave Link  302 at Sat Mar  4 13:44:02 2017, MaxMem=   655360000 cpu:         0.7
 (Enter /mnt/software/gaussian/g09/l303.exe)
 DipDrv:  MaxL=1.
 Leave Link  303 at Sat Mar  4 13:44:02 2017, MaxMem=   655360000 cpu:         0.1
 (Enter /mnt/software/gaussian/g09/l401.exe)
 ExpMin= 1.69D-01 ExpMax= 7.00D+03 ExpMxC= 1.05D+03 IAcc=1 IRadAn=         1 AccDes= 0.00D+00
 Harris functional with IExCor=  205 and IRadAn=       1 diagonalized for initial guess.
 HarFok:  IExCor=  205 AccDes= 0.00D+00 IRadAn=         1 IDoV= 1 UseB2=F ITyADJ=14
 ICtDFT=  3500011 ScaDFX=  1.000000  1.000000  1.000000  1.000000
 FoFCou: FMM=F IPFlag=           0 FMFlag=      100000 FMFlg1=           0
         NFxFlg=           0 DoJE=T BraDBF=F KetDBF=T FulRan=T
         wScrn=  0.000000 ICntrl=     500 IOpCl=  0 I1Cent=   200000004 NGrid=           0
         NMat0=    1 NMatS0=      1 NMatT0=    0 NMatD0=    1 NMtDS0=    0 NMtDT0=    0
 Petite list used in FoFCou.
 Harris En= -435.006919007126    
 JPrj=0 DoOrth=F DoCkMO=F.
 Initial guess <Sx>= 0.0000 <Sy>= 0.0000 <Sz>= 0.5000 <S**2>= 0.7500 S= 0.5000
 Leave Link  401 at Sat Mar  4 13:44:02 2017, MaxMem=   655360000 cpu:         0.7
 (Enter /mnt/software/gaussian/g09/l502.exe)
 UHF open shell SCF:
 Using DIIS extrapolation, IDIIS=  1040.
 Integral symmetry usage will be decided dynamically.
 Keep R1 and R2 ints in memory in canonical form, NReq=8999629.
 IVT=       36430 IEndB=       36430 NGot=   655360000 MDV=   647198221
 LenX=   647198221 LenY=   647192155
 Requested convergence on RMS density matrix=1.00D-08 within 128 cycles.
 Requested convergence on MAX density matrix=1.00D-06.
 Requested convergence on             energy=1.00D-06.
 No special actions if energy rises.
 FoFCou: FMM=F IPFlag=           0 FMFlag=           0 FMFlg1=           0
         NFxFlg=           0 DoJE=F BraDBF=F KetDBF=F FulRan=T
         wScrn=  0.000000 ICntrl=     600 IOpCl=  0 I1Cent=           0 NGrid=           0
         NMat0=    1 NMatS0=   2850 NMatT0=    0 NMatD0=    1 NMtDS0=    0 NMtDT0=    0
 Symmetry not used in FoFCou.

 Cycle   1  Pass 1  IDiag  1:
 E= -435.038875364037    
 DIIS: error= 7.71D-02 at cycle   1 NSaved=   1.
 NSaved= 1 IEnMin= 1 EnMin= -435.038875364037     IErMin= 1 ErrMin= 7.71D-02
 ErrMax= 7.71D-02  0.00D+00 EMaxC= 1.00D-01 BMatC= 1.01D+00 BMatP= 1.01D+00
 IDIUse=3 WtCom= 2.29D-01 WtEn= 7.71D-01
 Coeff-Com:  0.100D+01
 Coeff-En:   0.100D+01
 Coeff:      0.100D+01
 Gap=     0.487 Goal=   None    Shift=    0.000
 Gap=     0.788 Goal=   None    Shift=    0.000
 GapD=    0.487 DampG=2.000 DampE=0.500 DampFc=1.0000 IDamp=-1.
 RMSDP=3.85D-03 MaxDP=6.27D-02              OVMax= 5.45D-02

 Cycle   2  Pass 1  IDiag  1:
 E= -435.107738104795     Delta-E=       -0.068862740758 Rises=F Damp=F
 DIIS: error= 1.60D-02 at cycle   2 NSaved=   2.
 NSaved= 2 IEnMin= 2 EnMin= -435.107738104795     IErMin= 2 ErrMin= 1.60D-02
 ErrMax= 1.60D-02  0.00D+00 EMaxC= 1.00D-01 BMatC= 6.12D-02 BMatP= 1.01D+00
 IDIUse=3 WtCom= 8.40D-01 WtEn= 1.60D-01
 Coeff-Com:  0.884D-01 0.912D+00
 Coeff-En:   0.000D+00 0.100D+01
 Coeff:      0.742D-01 0.926D+00
 Gap=     0.460 Goal=   None    Shift=    0.000
 Gap=     0.413 Goal=   None    Shift=    0.000
 RMSDP=1.40D-03 MaxDP=2.49D-02 DE=-6.89D-02 OVMax= 4.77D-02

 Cycle   3  Pass 1  IDiag  1:
 E= -435.116821224426     Delta-E=       -0.009083119632 Rises=F Damp=F
 DIIS: error= 6.81D-03 at cycle   3 NSaved=   3.
 NSaved= 3 IEnMin= 3 EnMin= -435.116821224426     IErMin= 3 ErrMin= 6.81D-03
 ErrMax= 6.81D-03  0.00D+00 EMaxC= 1.00D-01 BMatC= 1.86D-02 BMatP= 6.12D-02
 IDIUse=3 WtCom= 9.32D-01 WtEn= 6.81D-02
 Coeff-Com: -0.242D-01 0.331D+00 0.693D+00
 Coeff-En:   0.000D+00 0.000D+00 0.100D+01
 Coeff:     -0.225D-01 0.309D+00 0.714D+00
 Gap=     0.451 Goal=   None    Shift=    0.000
 Gap=     0.403 Goal=   None    Shift=    0.000
 RMSDP=4.54D-04 MaxDP=9.98D-03 DE=-9.08D-03 OVMax= 9.77D-03

 Cycle   4  Pass 1  IDiag  1:
 E= -435.119709260934     Delta-E=       -0.002888036508 Rises=F Damp=F
 DIIS: error= 1.51D-03 at cycle   4 NSaved=   4.
 NSaved= 4 IEnMin= 4 EnMin= -435.119709260934     IErMin= 4 ErrMin= 1.51D-03
 ErrMax= 1.51D-03  0.00D+00 EMaxC= 1.00D-01 BMatC= 3.56D-04 BMatP= 1.86D-02
 IDIUse=3 WtCom= 9.85D-01 WtEn= 1.51D-02
 Coeff-Com: -0.388D-02-0.593D-01-0.460D-01 0.111D+01
 Coeff-En:   0.000D+00 0.000D+00 0.000D+00 0.100D+01
 Coeff:     -0.382D-02-0.584D-01-0.453D-01 0.111D+01
 Gap=     0.451 Goal=   None    Shift=    0.000
 Gap=     0.401 Goal=   None    Shift=    0.000
 RMSDP=1.44D-04 MaxDP=2.07D-03 DE=-2.89D-03 OVMax= 4.31D-03

 Cycle   5  Pass 1  IDiag  1:
 E= -435.119863461612     Delta-E=       -0.000154200678 Rises=F Damp=F
 DIIS: error= 4.93D-04 at cycle   5 NSaved=   5.
 NSaved= 5 IEnMin= 5 EnMin= -435.119863461612     IErMin= 5 ErrMin= 4.93D-04
 ErrMax= 4.93D-04  0.00D+00 EMaxC= 1.00D-01 BMatC= 4.31D-05 BMatP= 3.56D-04
 IDIUse=3 WtCom= 9.95D-01 WtEn= 4.93D-03
 Coeff-Com:  0.348D-02-0.307D-01-0.746D-01-0.750D-01 0.118D+01
 Coeff-En:   0.000D+00 0.000D+00 0.000D+00 0.000D+00 0.100D+01
 Coeff:      0.346D-02-0.306D-01-0.742D-01-0.746D-01 0.118D+01
 Gap=     0.453 Goal=   None    Shift=    0.000
 Gap=     0.402 Goal=   None    Shift=    0.000
 RMSDP=5.91D-05 MaxDP=9.90D-04 DE=-1.54D-04 OVMax= 1.93D-03

 Cycle   6  Pass 1  IDiag  1:
 E= -435.119885316011     Delta-E=       -0.000021854399 Rises=F Damp=F
 DIIS: error= 1.25D-04 at cycle   6 NSaved=   6.
 NSaved= 6 IEnMin= 6 EnMin= -435.119885316011     IErMin= 6 ErrMin= 1.25D-04
 ErrMax= 1.25D-04  0.00D+00 EMaxC= 1.00D-01 BMatC= 3.57D-06 BMatP= 4.31D-05
 IDIUse=3 WtCom= 9.99D-01 WtEn= 1.25D-03
 Coeff-Com:  0.523D-03 0.947D-03-0.255D-02-0.734D-01 0.815D-01 0.993D+00
 Coeff-En:   0.000D+00 0.000D+00 0.000D+00 0.000D+00 0.000D+00 0.100D+01
 Coeff:      0.522D-03 0.946D-03-0.254D-02-0.733D-01 0.814D-01 0.993D+00
 Gap=     0.453 Goal=   None    Shift=    0.000
 Gap=     0.402 Goal=   None    Shift=    0.000
 RMSDP=1.36D-05 MaxDP=2.09D-04 DE=-2.19D-05 OVMax= 3.68D-04

 Cycle   7  Pass 1  IDiag  1:
 E= -435.119886574973     Delta-E=       -0.000001258961 Rises=F Damp=F
 DIIS: error= 3.89D-05 at cycle   7 NSaved=   7.
 NSaved= 7 IEnMin= 7 EnMin= -435.119886574973     IErMin= 7 ErrMin= 3.89D-05
 ErrMax= 3.89D-05  0.00D+00 EMaxC= 1.00D-01 BMatC= 6.23D-07 BMatP= 3.57D-06
 IDIUse=1 WtCom= 1.00D+00 WtEn= 0.00D+00
 Coeff-Com: -0.447D-03 0.510D-02 0.113D-01-0.320D-02-0.172D+00 0.236D+00
 Coeff-Com:  0.923D+00
 Coeff:     -0.447D-03 0.510D-02 0.113D-01-0.320D-02-0.172D+00 0.236D+00
 Coeff:      0.923D+00
 Gap=     0.453 Goal=   None    Shift=    0.000
 Gap=     0.402 Goal=   None    Shift=    0.000
 RMSDP=5.19D-06 MaxDP=8.21D-05 DE=-1.26D-06 OVMax= 1.32D-04

 Cycle   8  Pass 1  IDiag  1:
 E= -435.119886761543     Delta-E=       -0.000000186571 Rises=F Damp=F
 DIIS: error= 1.28D-05 at cycle   8 NSaved=   8.
 NSaved= 8 IEnMin= 8 EnMin= -435.119886761543     IErMin= 8 ErrMin= 1.28D-05
 ErrMax= 1.28D-05  0.00D+00 EMaxC= 1.00D-01 BMatC= 2.61D-08 BMatP= 6.23D-07
 IDIUse=1 WtCom= 1.00D+00 WtEn= 0.00D+00
 Coeff-Com:  0.857D-04-0.131D-02-0.298D-02 0.529D-02 0.390D-01-0.111D+00
 Coeff-Com: -0.243D+00 0.131D+01
 Coeff:      0.857D-04-0.131D-02-0.298D-02 0.529D-02 0.390D-01-0.111D+00
 Coeff:     -0.243D+00 0.131D+01
 Gap=     0.453 Goal=   None    Shift=    0.000
 Gap=     0.402 Goal=   None    Shift=    0.000
 RMSDP=1.68D-06 MaxDP=2.80D-05 DE=-1.87D-07 OVMax= 4.90D-05

 Cycle   9  Pass 1  IDiag  1:
 E= -435.119886776279     Delta-E=       -0.000000014736 Rises=F Damp=F
 DIIS: error= 4.60D-06 at cycle   9 NSaved=   9.
 NSaved= 9 IEnMin= 9 EnMin= -435.119886776279     IErMin= 9 ErrMin= 4.60D-06
 ErrMax= 4.60D-06  0.00D+00 EMaxC= 1.00D-01 BMatC= 2.40D-09 BMatP= 2.61D-08
 IDIUse=1 WtCom= 1.00D+00 WtEn= 0.00D+00
 Coeff-Com:  0.434D-04-0.546D-03-0.122D-02 0.688D-03 0.181D-01-0.289D-01
 Coeff-Com: -0.105D+00 0.119D+00 0.999D+00
 Coeff:      0.434D-04-0.546D-03-0.122D-02 0.688D-03 0.181D-01-0.289D-01
 Coeff:     -0.105D+00 0.119D+00 0.999D+00
 Gap=     0.453 Goal=   None    Shift=    0.000
 Gap=     0.402 Goal=   None    Shift=    0.000
 RMSDP=4.60D-07 MaxDP=7.97D-06 DE=-1.47D-08 OVMax= 1.46D-05

 Cycle  10  Pass 1  IDiag  1:
 E= -435.119886777535     Delta-E=       -0.000000001255 Rises=F Damp=F
 DIIS: error= 1.56D-06 at cycle  10 NSaved=  10.
 NSaved=10 IEnMin=10 EnMin= -435.119886777535     IErMin=10 ErrMin= 1.56D-06
 ErrMax= 1.56D-06  0.00D+00 EMaxC= 1.00D-01 BMatC= 2.17D-10 BMatP= 2.40D-09
 IDIUse=1 WtCom= 1.00D+00 WtEn= 0.00D+00
 Coeff-Com: -0.148D-04 0.215D-03 0.493D-03-0.681D-03-0.670D-02 0.161D-01
 Coeff-Com:  0.378D-01-0.138D+00-0.193D+00 0.128D+01
 Coeff:     -0.148D-04 0.215D-03 0.493D-03-0.681D-03-0.670D-02 0.161D-01
 Coeff:      0.378D-01-0.138D+00-0.193D+00 0.128D+01
 Gap=     0.453 Goal=   None    Shift=    0.000
 Gap=     0.402 Goal=   None    Shift=    0.000
 RMSDP=1.87D-07 MaxDP=2.35D-06 DE=-1.26D-09 OVMax= 7.02D-06

 Cycle  11  Pass 1  IDiag  1:
 E= -435.119886777705     Delta-E=       -0.000000000170 Rises=F Damp=F
 DIIS: error= 3.98D-07 at cycle  11 NSaved=  11.
 NSaved=11 IEnMin=11 EnMin= -435.119886777705     IErMin=11 ErrMin= 3.98D-07
 ErrMax= 3.98D-07  0.00D+00 EMaxC= 1.00D-01 BMatC= 1.73D-11 BMatP= 2.17D-10
 IDIUse=1 WtCom= 1.00D+00 WtEn= 0.00D+00
 Coeff-Com:  0.231D-05-0.400D-04-0.903D-04 0.204D-03 0.109D-02-0.326D-02
 Coeff-Com: -0.718D-02 0.405D-01 0.102D-02-0.450D+00 0.142D+01
 Coeff:      0.231D-05-0.400D-04-0.903D-04 0.204D-03 0.109D-02-0.326D-02
 Coeff:     -0.718D-02 0.405D-01 0.102D-02-0.450D+00 0.142D+01
 Gap=     0.453 Goal=   None    Shift=    0.000
 Gap=     0.402 Goal=   None    Shift=    0.000
 RMSDP=5.93D-08 MaxDP=9.07D-07 DE=-1.70D-10 OVMax= 2.05D-06

 Cycle  12  Pass 1  IDiag  1:
 E= -435.119886777718     Delta-E=       -0.000000000013 Rises=F Damp=F
 DIIS: error= 1.82D-07 at cycle  12 NSaved=  12.
 NSaved=12 IEnMin=12 EnMin= -435.119886777718     IErMin=12 ErrMin= 1.82D-07
 ErrMax= 1.82D-07  0.00D+00 EMaxC= 1.00D-01 BMatC= 1.67D-12 BMatP= 1.73D-11
 IDIUse=1 WtCom= 1.00D+00 WtEn= 0.00D+00
 Coeff-Com:  0.110D-05-0.169D-04-0.362D-04 0.624D-04 0.480D-03-0.122D-02
 Coeff-Com: -0.294D-02 0.122D-01 0.114D-01-0.117D+00 0.104D+00 0.993D+00
 Coeff:      0.110D-05-0.169D-04-0.362D-04 0.624D-04 0.480D-03-0.122D-02
 Coeff:     -0.294D-02 0.122D-01 0.114D-01-0.117D+00 0.104D+00 0.993D+00
 Gap=     0.453 Goal=   None    Shift=    0.000
 Gap=     0.402 Goal=   None    Shift=    0.000
 RMSDP=1.20D-08 MaxDP=2.37D-07 DE=-1.28D-11 OVMax= 5.44D-07

 Cycle  13  Pass 1  IDiag  1:
 E= -435.119886777719     Delta-E=       -0.000000000001 Rises=F Damp=F
 DIIS: error= 1.82D-07 at cycle  13 NSaved=  13.
 NSaved=13 IEnMin=13 EnMin= -435.119886777719     IErMin=13 ErrMin= 1.82D-07
 ErrMax= 1.82D-07  0.00D+00 EMaxC= 1.00D-01 BMatC= 5.61D-13 BMatP= 1.67D-12
 IDIUse=1 WtCom= 1.00D+00 WtEn= 0.00D+00
 Coeff-Com: -0.808D-07 0.175D-05 0.501D-05-0.140D-04-0.503D-04 0.193D-03
 Coeff-Com:  0.345D-03-0.290D-02 0.203D-02 0.385D-01-0.177D+00 0.206D+00
 Coeff-Com:  0.933D+00
 Coeff:     -0.808D-07 0.175D-05 0.501D-05-0.140D-04-0.503D-04 0.193D-03
 Coeff:      0.345D-03-0.290D-02 0.203D-02 0.385D-01-0.177D+00 0.206D+00
 Coeff:      0.933D+00
 Gap=     0.453 Goal=   None    Shift=    0.000
 Gap=     0.402 Goal=   None    Shift=    0.000
 RMSDP=6.06D-09 MaxDP=2.36D-07 DE=-9.09D-13 OVMax= 5.39D-07

 SCF Done:  E(UHF) =  -435.119886778     A.U. after   13 cycles
            NFock= 13  Conv=0.61D-08     -V/T= 2.0025
 <Sx>= 0.0000 <Sy>= 0.0000 <Sz>= 0.5000 <S**2>= 0.7527 S= 0.5013
 <L.S>= 0.000000000000E+00
 KE= 4.340409754253D+02 PE=-1.307509444413D+03 EE= 2.982186487313D+02
 Annihilation of the first spin contaminant:
 S**2 before annihilation     0.7527,   after     0.7500
 Leave Link  502 at Sat Mar  4 13:44:03 2017, MaxMem=   655360000 cpu:         1.7
 (Enter /mnt/software/gaussian/g09/l801.exe)
 Range of M.O.s used for correlation:     1    75
 NBasis=    75 NAE=    21 NBE=    20 NFC=     0 NFV=     0
 NROrb=     75 NOA=    21 NOB=    20 NVA=    54 NVB=    55
 Leave Link  801 at Sat Mar  4 13:44:03 2017, MaxMem=   655360000 cpu:         0.1
 (Enter /mnt/software/gaussian/g09/l1002.exe)
 Minotr:  UHF open shell wavefunction.
          Direct CPHF calculation.
          Differentiating once with respect to electric field.
                with respect to dipole field.
          Electric field/nuclear overlap derivatives assumed to be zero.
          Requested convergence is 1.0D-08 RMS, and 1.0D-07 maximum.
          Secondary convergence is 1.0D-12 RMS, and 1.0D-12 maximum.
          NewPWx=F KeepS1=T KeepF1=T KeepIn=T MapXYZ=F SortEE=F KeepMc=T.
          MDV=     655359806 using IRadAn=       2.
 Keep R1 and R2 ints in memory in canonical form, NReq=8971660.
 FoFCou: FMM=F IPFlag=           0 FMFlag=           0 FMFlg1=           0
         NFxFlg=           0 DoJE=F BraDBF=F KetDBF=F FulRan=T
         wScrn=  0.000000 ICntrl=     600 IOpCl=  0 I1Cent=           0 NGrid=           0
         NMat0=    1 NMatS0=   2850 NMatT0=    0 NMatD0=    1 NMtDS0=    0 NMtDT0=    0
 Symmetry not used in FoFCou.
          Solving linear equations simultaneously, MaxMat=       0.
          There are     3 degrees of freedom in the 1st order CPHF.  IDoFFX=0 NUNeed=     3.
      3 vectors produced by pass  0 Test12= 7.45D-14 3.33D-08 XBig12= 4.50D+00 5.17D-01.
 AX will form     3 AO Fock derivatives at one time.
      3 vectors produced by pass  1 Test12= 7.45D-14 3.33D-08 XBig12= 3.09D-01 8.61D-02.
      3 vectors produced by pass  2 Test12= 7.45D-14 3.33D-08 XBig12= 4.11D-02 6.40D-02.
      3 vectors produced by pass  3 Test12= 7.45D-14 3.33D-08 XBig12= 1.89D-03 1.64D-02.
      3 vectors produced by pass  4 Test12= 7.45D-14 3.33D-08 XBig12= 3.89D-05 1.35D-03.
      3 vectors produced by pass  5 Test12= 7.45D-14 3.33D-08 XBig12= 1.15D-06 1.99D-04.
      3 vectors produced by pass  6 Test12= 7.45D-14 3.33D-08 XBig12= 4.63D-08 5.43D-05.
      3 vectors produced by pass  7 Test12= 7.45D-14 3.33D-08 XBig12= 1.90D-09 2.95D-05.
      3 vectors produced by pass  8 Test12= 7.45D-14 3.33D-08 XBig12= 7.34D-11 3.57D-06.
      3 vectors produced by pass  9 Test12= 7.45D-14 3.33D-08 XBig12= 3.01D-12 4.68D-07.
      3 vectors produced by pass 10 Test12= 7.45D-14 3.33D-08 XBig12= 8.41D-14 1.73D-07.
 InvSVY:  IOpt=1 It=  1 EMax= 8.88D-16
 Solved reduced A of dimension    33 with     3 vectors.
 End of Minotr F.D. properties file   721 does not exist.
 End of Minotr F.D. properties file   722 does not exist.
 End of Minotr F.D. properties file   788 does not exist.
 Leave Link 1002 at Sat Mar  4 13:44:03 2017, MaxMem=   655360000 cpu:         2.5
 (Enter /mnt/software/gaussian/g09/l1101.exe)
 Using compressed storage, NAtomX=     5.
 Will process      6 centers per pass.
 Leave Link 1101 at Sat Mar  4 13:44:03 2017, MaxMem=   655360000 cpu:         0.8
 (Enter /mnt/software/gaussian/g09/l1102.exe)
 Symmetrizing basis deriv contribution to polar:
 IMax=3 JMax=2 DiffMx= 0.00D+00
 Leave Link 1102 at Sat Mar  4 13:44:03 2017, MaxMem=   655360000 cpu:         0.1
 (Enter /mnt/software/gaussian/g09/l1110.exe)
 Forming Gx(P) for the SCF density, NAtomX=     5.
 Integral derivatives from FoFJK, PRISM(SPDF).
 Do as many integral derivatives as possible in FoFJK.
 G2DrvN: MDV=     655359856.
 G2DrvN: will do     6 centers at a time, making    1 passes.
 PxScal for G2LodP:  IOpCl= 1 ISclPx=1 IMOff=     1 NMtTot=     4 NTT=    2850 ScalPx= 1.30D+00
 Calling FoFCou, ICntrl=  3107 FMM=F I1Cent=   0 AccDes= 0.00D+00.
 FoFJK:  IHMeth= 1 ICntrl=    3107 DoSepK=F KAlg= 0 I1Cent=   0 FoldK=F
 IRaf=         0 NMat=   1 IRICut=       1 DoRegI=T DoRafI=F ISym2E= 0.
 FoFCou: FMM=F IPFlag=           0 FMFlag=      100000 FMFlg1=           0
         NFxFlg=           0 DoJE=F BraDBF=F KetDBF=F FulRan=T
         wScrn=  0.000000 ICntrl=    3107 IOpCl=  1 I1Cent=           0 NGrid=           0
         NMat0=    1 NMatS0=      1 NMatT0=    0 NMatD0=    4 NMtDS0=    3 NMtDT0=    0
 Symmetry not used in FoFCou.
 End of G2Drv F.D. properties file   721 does not exist.
 End of G2Drv F.D. properties file   722 does not exist.
 End of G2Drv F.D. properties file   788 does not exist.
 Leave Link 1110 at Sat Mar  4 13:44:04 2017, MaxMem=   655360000 cpu:         1.9
 (Enter /mnt/software/gaussian/g09/l1002.exe)
 Minotr:  UHF open shell wavefunction.
          IDoAtm=11111
          Direct CPHF calculation.
          Differentiating once with respect to electric field.
                with respect to dipole field.
          Differentiating once with respect to nuclear coordinates.
          Requested convergence is 1.0D-08 RMS, and 1.0D-07 maximum.
          Secondary convergence is 1.0D-12 RMS, and 1.0D-12 maximum.
          NewPWx=T KeepS1=F KeepF1=F KeepIn=T MapXYZ=F SortEE=F KeepMc=T.
          MDV=     655359796 using IRadAn=       2.
 Keep R1 and R2 ints in memory in canonical form, NReq=8971775.
 FoFCou: FMM=F IPFlag=           0 FMFlag=           0 FMFlg1=           0
         NFxFlg=           0 DoJE=F BraDBF=F KetDBF=F FulRan=T
         wScrn=  0.000000 ICntrl=     600 IOpCl=  0 I1Cent=           0 NGrid=           0
         NMat0=    1 NMatS0=   2850 NMatT0=    0 NMatD0=    1 NMtDS0=    0 NMtDT0=    0
 Symmetry not used in FoFCou.
          Solving linear equations simultaneously, MaxMat=       0.
          There are    18 degrees of freedom in the 1st order CPHF.  IDoFFX=5 NUNeed=    18.
 Will reuse    3 saved solutions.
     12 vectors produced by pass  0 Test12= 1.24D-14 5.56D-09 XBig12= 1.91D-01 8.44D-02.
 AX will form    12 AO Fock derivatives at one time.
     12 vectors produced by pass  1 Test12= 1.24D-14 5.56D-09 XBig12= 1.32D-02 4.16D-02.
     12 vectors produced by pass  2 Test12= 1.24D-14 5.56D-09 XBig12= 1.00D-03 6.13D-03.
     12 vectors produced by pass  3 Test12= 1.24D-14 5.56D-09 XBig12= 3.02D-05 9.29D-04.
     10 vectors produced by pass  4 Test12= 1.24D-14 5.56D-09 XBig12= 5.14D-07 1.18D-04.
      9 vectors produced by pass  5 Test12= 1.24D-14 5.56D-09 XBig12= 7.14D-09 1.49D-05.
      9 vectors produced by pass  6 Test12= 1.24D-14 5.56D-09 XBig12= 6.44D-11 1.32D-06.
      8 vectors produced by pass  7 Test12= 1.24D-14 5.56D-09 XBig12= 3.86D-13 7.39D-08.
      3 vectors produced by pass  8 Test12= 1.24D-14 5.56D-09 XBig12= 1.83D-15 1.01D-08.
 InvSVY:  IOpt=1 It=  1 EMax= 1.44D-15
 Solved reduced A of dimension    87 with    12 vectors.
 FullF1:  Do perturbations    1 to     3.
 Isotropic polarizability for W=    0.000000       11.68 Bohr**3.
 FullF1:  Do perturbations    1 to     6.
 End of Minotr F.D. properties file   721 does not exist.
 End of Minotr F.D. properties file   722 does not exist.
 End of Minotr F.D. properties file   788 does not exist.
 Leave Link 1002 at Sat Mar  4 13:44:04 2017, MaxMem=   655360000 cpu:         4.6
 (Enter /mnt/software/gaussian/g09/l601.exe)
 Copying SCF densities to generalized density rwf, IOpCl= 1 IROHF=0.

 **********************************************************************

            Population analysis using the SCF density.

 **********************************************************************

 Orbital symmetries:
 Alpha Orbitals:
       Occupied  (A) (A) (A) (A) (A) (A) (A) (A) (A) (A) (A) (A)
                 (A) (A) (A) (A) (A) (A) (A) (A) (A)
       Virtual   (A) (A) (A) (A) (A) (A) (A) (A) (A) (A) (A) (A)
                 (A) (A) (A) (A) (A) (A) (A) (A) (A) (A) (A) (A)
                 (A) (A) (A) (A) (A) (A) (A) (A) (A) (A) (A) (A)
                 (A) (A) (A) (A) (A) (A) (A) (A) (A) (A) (A) (A)
                 (A) (A) (A) (A) (A) (A)
 Beta  Orbitals:
       Occupied  (A) (A) (A) (A) (A) (A) (A) (A) (A) (A) (A) (A)
                 (A) (A) (A) (A) (A) (A) (A) (A)
       Virtual   (A) (A) (A) (A) (A) (A) (A) (A) (A) (A) (A) (A)
                 (A) (A) (A) (A) (A) (A) (A) (A) (A) (A) (A) (A)
                 (A) (A) (A) (A) (A) (A) (A) (A) (A) (A) (A) (A)
                 (A) (A) (A) (A) (A) (A) (A) (A) (A) (A) (A) (A)
                 (A) (A) (A) (A) (A) (A) (A)
 The electronic state is 2-A.
 Alpha  occ. eigenvalues --  -26.75029 -26.74627 -26.73882 -26.43174 -11.96465
 Alpha  occ. eigenvalues --   -2.17518  -2.05481  -2.03359  -1.68556  -1.32714
 Alpha  occ. eigenvalues --   -1.23432  -1.22750  -1.18293  -1.07163  -1.06223
 Alpha  occ. eigenvalues --   -1.03437  -1.03266  -1.01470  -0.85380  -0.74590
 Alpha  occ. eigenvalues --   -0.74588
 Alpha virt. eigenvalues --   -0.29253   0.08258   0.12287   0.16392   0.32712
 Alpha virt. eigenvalues --    0.36344   0.40067   0.43990   0.99990   1.01772
 Alpha virt. eigenvalues --    1.02532   1.03733   1.05833   1.09057   1.27625
 Alpha virt. eigenvalues --    1.28112   1.28414   1.29641   1.30331   1.33436
 Alpha virt. eigenvalues --    1.33711   1.40274   1.40278   1.41494   1.59934
 Alpha virt. eigenvalues --    1.65170   1.70884   1.77201   1.78781   1.83124
 Alpha virt. eigenvalues --    1.83253   1.85324   1.91858   1.96829   2.00325
 Alpha virt. eigenvalues --    2.00984   2.02710   2.02713   2.08127   2.08127
 Alpha virt. eigenvalues --    2.24273   2.48220   2.53223   2.54648   2.82101
 Alpha virt. eigenvalues --    2.90844   3.09589   3.16868   3.20440   3.66789
 Alpha virt. eigenvalues --    4.20545   4.44844   4.50608   4.73417
  Beta  occ. eigenvalues --  -26.75029 -26.74627 -26.73882 -26.38399 -11.96465
  Beta  occ. eigenvalues --   -2.17518  -2.05481  -2.03359  -1.49365  -1.32714
  Beta  occ. eigenvalues --   -1.23432  -1.22750  -1.18293  -1.07163  -1.06223
  Beta  occ. eigenvalues --   -1.03437  -1.03266  -1.01470  -0.69426  -0.69424
  Beta virt. eigenvalues --   -0.29253   0.06303   0.08258   0.12287   0.16392
  Beta virt. eigenvalues --    0.32712   0.36344   0.40067   0.43990   0.99990
  Beta virt. eigenvalues --    1.01772   1.02532   1.05833   1.06963   1.09057
  Beta virt. eigenvalues --    1.27625   1.28112   1.28414   1.29641   1.30331
  Beta virt. eigenvalues --    1.33711   1.41494   1.42799   1.42804   1.55786
  Beta virt. eigenvalues --    1.59934   1.65170   1.70884   1.77201   1.78781
  Beta virt. eigenvalues --    1.83124   1.83253   1.85324   1.91858   1.96829
  Beta virt. eigenvalues --    2.00325   2.08800   2.08800   2.11591   2.11594
  Beta virt. eigenvalues --    2.12694   2.24273   2.48220   2.53223   2.54648
  Beta virt. eigenvalues --    2.82101   2.90844   3.09589   3.16868   3.20440
  Beta virt. eigenvalues --    3.71089   4.20545   4.44844   4.50608   4.73417
          Condensed to atoms (all electrons):
               1          2          3          4          5
     1  C    3.530801   0.378608   0.413092   0.000000   0.418007
     2  F    0.378608   8.814476  -0.029663   0.000000  -0.029514
     3  F    0.413092  -0.029663   8.748039   0.000000  -0.063370
     4  F    0.000000   0.000000   0.000000   9.000000   0.000000
     5  F    0.418007  -0.029514  -0.063370   0.000000   8.732363
          Atomic-Atomic Spin Densities.
               1          2          3          4          5
     1  C    0.000000   0.000000   0.000000   0.000000   0.000000
     2  F    0.000000   0.000000   0.000000   0.000000   0.000000
     3  F    0.000000   0.000000   0.000000   0.000000   0.000000
     4  F    0.000000   0.000000   0.000000   1.000000   0.000000
     5  F    0.000000   0.000000   0.000000   0.000000   0.000000
 Mulliken charges and spin densities:
               1          2
     1  C    1.259492   0.000000
     2  F   -0.133907   0.000000
     3  F   -0.068098   0.000000
     4  F    0.000000   1.000000
     5  F   -0.057486   0.000000
 Sum of Mulliken charges =   1.00000   1.00000
 Mulliken charges and spin densities with hydrogens summed into heavy atoms:
               1          2
     1  C    1.259492   0.000000
     2  F   -0.133907   0.000000
     3  F   -0.068098   0.000000
     4  F    0.000000   1.000000
     5  F   -0.057486   0.000000
 APT charges:
               1
     1  C    1.997960
     2  F   -0.299685
     3  F   -0.348481
     4  F    0.000001
     5  F   -0.349794
 Sum of APT charges =   1.00000
 APT charges with hydrogens summed into heavy atoms:
               1
     1  C    1.997960
     2  F   -0.299685
     3  F   -0.348481
     4  F    0.000001
     5  F   -0.349794
 Electronic spatial extent (au):  <R**2>=           7413.1673
 Charge=              1.0000 electrons
 Dipole moment (field-independent basis, Debye):
    X=             18.8891    Y=              0.3955    Z=             -0.3886  Tot=             18.8972
 Quadrupole moment (field-independent basis, Debye-Ang):
   XX=             53.7076   YY=            -21.0263   ZZ=            -20.4058
   XY=              1.7453   XZ=             -1.6480   YZ=              0.1160
 Traceless Quadrupole moment (field-independent basis, Debye-Ang):
   XX=             49.6157   YY=            -25.1181   ZZ=            -24.4976
   XY=              1.7453   XZ=             -1.6480   YZ=              0.1160
 Octapole moment (field-independent basis, Debye-Ang**2):
  XXX=            304.0364  YYY=             -0.4078  ZZZ=              0.8667  XYY=              1.8537
  XXY=              7.7121  XXZ=             -7.5809  XZZ=             -8.0671  YZZ=             -0.7946
  YYZ=             -0.3679  XYZ=             -3.0786
 Hexadecapole moment (field-independent basis, Debye-Ang**3):
 XXXX=          -5131.4316 YYYY=            -68.0315 ZZZZ=            -58.0172 XXXY=             36.8148
 XXXZ=            -22.6747 YYYX=             -2.8147 YYYZ=              0.5163 ZZZX=              2.6933
 ZZZY=             -0.2580 XXYY=          -1064.9191 XXZZ=           -927.8863 YYZZ=            -20.9119
 XXYZ=             34.2694 YYXZ=             -0.5859 ZZXY=             -2.6797
 N-N= 1.401299334791D+02 E-N=-1.307509444467D+03  KE= 4.340409754253D+02
  Exact polarizability:   9.667  -1.246  13.125   0.711  -0.069  12.248
 Approx polarizability:   9.633  -0.965  12.300   0.497  -0.135  11.370
                          Isotropic Fermi Contact Couplings
        Atom                 a.u.       MegaHertz       Gauss      10(-4) cm-1
     1  C(13)              0.00000       0.00000       0.00000       0.00000
     2  F(19)              0.00000       0.00000       0.00000       0.00000
     3  F(19)              0.00000       0.00000       0.00000       0.00000
     4  F(19)              0.06930     291.58985     104.04651      97.26390
     5  F(19)              0.00000       0.00000       0.00000       0.00000
 --------------------------------------------------------
       Center         ----  Spin Dipole Couplings  ----
                      3XX-RR        3YY-RR        3ZZ-RR
 --------------------------------------------------------
     1   Atom        0.000058     -0.000029     -0.000029
     2   Atom        0.000064     -0.000032     -0.000032
     3   Atom        0.000057     -0.000029     -0.000028
     4   Atom       -2.908672     -2.389384      5.298057
     5   Atom        0.000059     -0.000030     -0.000030
 --------------------------------------------------------
                        XY            XZ            YZ
 --------------------------------------------------------
     1   Atom        0.000001      0.000000      0.000000
     2   Atom        0.000007     -0.000002      0.000000
     3   Atom       -0.000001      0.000005      0.000000
     4   Atom        0.039432      0.156338      2.070688
     5   Atom       -0.000004     -0.000004      0.000000
 --------------------------------------------------------


 ---------------------------------------------------------------------------------
              Anisotropic Spin Dipole Couplings in Principal Axis System
 ---------------------------------------------------------------------------------

       Atom             a.u.   MegaHertz   Gauss  10(-4) cm-1        Axes

              Baa     0.0000    -0.004    -0.001    -0.001 -0.0082  0.9696 -0.2444
     1 C(13)  Bbb     0.0000    -0.004    -0.001    -0.001  0.0033  0.2444  0.9697
              Bcc     0.0001     0.008     0.003     0.003  1.0000  0.0071 -0.0052
 
              Baa     0.0000    -0.016    -0.006    -0.005 -0.0751  0.9672 -0.2425
     2 F(19)  Bbb     0.0000    -0.016    -0.006    -0.005 -0.0003  0.2432  0.9700
              Bcc     0.0001     0.033     0.012     0.011  0.9972  0.0729 -0.0180
 
              Baa     0.0000    -0.014    -0.005    -0.005  0.0314  0.9690 -0.2450
     3 F(19)  Bbb     0.0000    -0.014    -0.005    -0.005 -0.0547  0.2464  0.9676
              Bcc     0.0001     0.029     0.010     0.010  0.9980 -0.0170  0.0608
 
              Baa    -2.9117 -1462.311  -521.789  -487.774 -0.0078  0.9696 -0.2444
     4 F(19)  Bbb    -2.9116 -1462.305  -521.787  -487.772  0.9998  0.0031 -0.0198
              Bcc     5.8233  2924.616  1043.576   975.547  0.0185  0.2445  0.9695
 
              Baa     0.0000    -0.015    -0.005    -0.005  0.0353  0.9689 -0.2450
     5 F(19)  Bbb     0.0000    -0.015    -0.005    -0.005  0.0580  0.2428  0.9683
              Bcc     0.0001     0.030     0.011     0.010  0.9977 -0.0484 -0.0477
 

 ---------------------------------------------------------------------------------

 No NMR shielding tensors so no spin-rotation constants.
 Leave Link  601 at Sat Mar  4 13:44:05 2017, MaxMem=   655360000 cpu:         1.2
 (Enter /mnt/software/gaussian/g09/l701.exe)
 Compute integral second derivatives.
 ... and contract with generalized density number  0.
 Entering OneElI...
 Calculate overlap and kinetic energy integrals
    NBasis =  75  MinDer = 2  MaxDer = 2
 Requested accuracy = 0.1000D-12
 PrsmSu:  NPrtUS=   6 ThrOK=T IAlg=1 NPAlg=1 LenDen=           0.
 Prism:   IPart=     0 DynPar=F LinDyn=F Incr=           1.
 PRISM was handed   109212867 working-precision words and   146 shell-pairs
 PRISM was handed   109212867 working-precision words and   146 shell-pairs
 PRISM was handed   109212867 working-precision words and   146 shell-pairs
 PRISM was handed   109212867 working-precision words and   146 shell-pairs
 PRISM was handed   109212867 working-precision words and   146 shell-pairs
 PRISM was handed   109212867 working-precision words and   146 shell-pairs
 IPart=  0 NShTot=          31 NBatch=          17 AvBLen=         1.8
 IPart=  4 NShTot=          22 NBatch=          10 AvBLen=         2.2
 IPart=  5 NShTot=          14 NBatch=           9 AvBLen=         1.6
 IPart=  2 NShTot=          26 NBatch=          14 AvBLen=         1.9
 IPart=  3 NShTot=          23 NBatch=          11 AvBLen=         2.1
 IPart=  1 NShTot=          30 NBatch=          16 AvBLen=         1.9
 PrSmSu:  NxtVal=              7.
 Entering OneElI...
 Calculate potential energy integrals
    NBasis =  75  MinDer = 2  MaxDer = 2
 Requested accuracy = 0.1000D-12
 PrsmSu:  NPrtUS=   6 ThrOK=T IAlg=1 NPAlg=1 LenDen=           0.
 Prism:   IPart=     0 DynPar=F LinDyn=F Incr=           1.
 PRISM was handed   109214649 working-precision words and   143 shell-pairs
 PRISM was handed   109214649 working-precision words and   143 shell-pairs
 PRISM was handed   109214649 working-precision words and   143 shell-pairs
 PRISM was handed   109214649 working-precision words and   143 shell-pairs
 PRISM was handed   109214649 working-precision words and   143 shell-pairs
 PRISM was handed   109214649 working-precision words and   143 shell-pairs
 IPart=  0 NShTot=         155 NBatch=          31 AvBLen=         5.0
 IPart=  5 NShTot=          70 NBatch=          14 AvBLen=         5.0
 IPart=  4 NShTot=         115 NBatch=          23 AvBLen=         5.0
 IPart=  1 NShTot=         135 NBatch=          27 AvBLen=         5.0
 IPart=  2 NShTot=         120 NBatch=          24 AvBLen=         5.0
 IPart=  3 NShTot=         120 NBatch=          24 AvBLen=         5.0
 PrSmSu:  NxtVal=              7.
 Polarizability after L701:
                1             2             3 
      1  0.966749D+01
      2 -0.124580D+01  0.131252D+02
      3  0.711462D+00 -0.693460D-01  0.122483D+02
 Dipole Derivatives after L701:
                 1             2             3             4             5 
      1   0.135715D+01 -0.253666D+00  0.227399D+00 -0.181340D+00  0.108121D+00
      2  -0.228506D+00  0.228601D+01  0.735818D-01  0.270594D+00 -0.503158D+00
      3   0.221499D+00  0.791208D-01  0.235073D+01 -0.813140D-01  0.683774D-01
                 6             7             8             9            10 
      1  -0.349710D-01 -0.882801D-01  0.997533D-01 -0.161887D+00 -0.918615D-04
      2   0.456356D-01  0.219778D-01 -0.260512D+00  0.775692D-01  0.000000D+00
      3  -0.214558D+00 -0.757555D-02  0.204917D+00 -0.696653D+00  0.000000D+00
                11            12            13            14            15 
      1   0.000000D+00  0.000000D+00 -0.874335D-01  0.457929D-01 -0.305412D-01
      2   0.457895D-04  0.000000D+00 -0.640660D-01 -0.522383D+00 -0.196787D+00
      3   0.000000D+00  0.483825D-04 -0.132610D+00 -0.352416D+00 -0.439565D+00
 Hessian after L701:
                1             2             3             4             5 
      1  0.340895D+02
      2  0.438643D+01  0.163250D+02
      3 -0.356047D+01 -0.158392D+00  0.190175D+02
      4 -0.673052D+01 -0.640954D+01  0.118837D+01  0.807184D+01
      5 -0.695955D+01 -0.136377D+01 -0.168526D+01  0.788275D+01 -0.869557D+00
      6  0.134477D+01 -0.176710D+01 -0.106637D+02 -0.171097D+01  0.236380D+01
      7 -0.138637D+02 -0.292669D+00  0.540165D+00 -0.558909D+00 -0.546363D+00
      8 -0.870141D-01 -0.112681D+02 -0.511870D+01 -0.722375D+00  0.541190D+00
      9  0.576237D-01 -0.539145D+01  0.186476D+00  0.783107D+00 -0.138611D+01
     10  0.540578D-02  0.151561D-02 -0.803098D-03  0.324160D-02  0.346874D-02
     11  0.118192D-03 -0.147854D-02 -0.120018D-04  0.489611D-03 -0.248798D-02
     12 -0.863982D-04 -0.137718D-04 -0.145260D-02 -0.111674D-03 -0.492799D-04
     13 -0.135007D+02  0.231427D+01  0.183274D+01 -0.785651D+00 -0.380306D+00
     14  0.266002D+01 -0.369166D+01  0.696237D+01 -0.751327D+00  0.169462D+01
     15  0.215816D+01  0.731696D+01 -0.853875D+01 -0.260394D+00  0.707621D+00
                6             7             8             9            10 
      6  0.111901D+02
      7  0.491273D+00  0.150471D+02
      8 -0.110620D+01  0.772010D+00  0.114746D+02
      9  0.194387D+00 -0.127646D+01  0.580252D+01 -0.188747D+01
     10 -0.654916D-03  0.453801D-02 -0.165021D-02  0.324425D-02 -0.172865D-01
     11 -0.344189D-04 -0.123093D-03 -0.230835D-02  0.413371D-05 -0.133968D-03
     12 -0.265361D-02  0.435001D-03 -0.460763D-04 -0.219972D-02  0.851250D-04
     13 -0.124418D+00 -0.629092D+00  0.390293D-01  0.432484D+00  0.410116D-02
     14  0.509542D+00  0.671447D-01 -0.745395D+00  0.975040D+00 -0.320017D-02
     15 -0.718138D+00  0.244586D+00  0.422433D+00  0.150881D+01 -0.187136D-02
               11            12            13            14            15 
     11  0.863445D-02
     12  0.119637D-05  0.865209D-02
     13 -0.350742D-03 -0.322054D-03  0.149113D+02
     14 -0.235957D-02  0.107932D-03 -0.197264D+01  0.274480D+01
     15  0.410905D-04 -0.234616D-02 -0.214048D+01 -0.844706D+01  0.775042D+01
 Leave Link  701 at Sat Mar  4 13:44:05 2017, MaxMem=   655360000 cpu:         0.9
 (Enter /mnt/software/gaussian/g09/l702.exe)
 L702 exits ... SP integral derivatives will be done elsewhere.
 Leave Link  702 at Sat Mar  4 13:44:05 2017, MaxMem=   655360000 cpu:         0.1
 (Enter /mnt/software/gaussian/g09/l703.exe)
 Compute integral second derivatives, UseDBF=F ICtDFT=           0.
 Integral derivatives from FoFJK, PRISM(SPDF).
 ICntrl=    100127.
 Calling FoFJK, ICntrl=    100127 FMM=F ISym2X=0 I1Cent= 0 IOpClX= 1 NMat=1 NMatS=1 NMatT=0.
 FoFJK:  IHMeth= 1 ICntrl=  100127 DoSepK=F KAlg= 0 I1Cent=   0 FoldK=F
 IRaf=         0 NMat=   1 IRICut=       1 DoRegI=T DoRafI=F ISym2E= 0.
 FoFCou: FMM=F IPFlag=           0 FMFlag=      100000 FMFlg1=         800
         NFxFlg=           0 DoJE=F BraDBF=F KetDBF=F FulRan=T
         wScrn=  0.000000 ICntrl=  100127 IOpCl=  1 I1Cent=           0 NGrid=           0
         NMat0=    1 NMatS0=      1 NMatT0=    0 NMatD0=    1 NMtDS0=    0 NMtDT0=    0
 Symmetry not used in FoFCou.
 FoFCou:  KetSym=F NOpSet=  1 NOpAb=1 NOp=  1.
 FoFCou:  CnvScl= 1.00D+00 Thresh= 1.00D-10 IAcrcy=      10.
 PrismS was handed   655323690 working-precision words and   143 shell-pairs
 FoFCou: LinMIO=F DoNuc=F BraDBF=F KetDBF=F HaveP=T PDBF=F HaveZ=T HaveW=F
         NIJTC =       6 NIJTAt=       0 NIJTCD=       0 NIJTT =       6
         IJTBeg=       1 IJTEnd=       6 KLTBeg=       1 KLTEnd=       6
         IPTBeg=       1 IPTEnd=       6 IPTBCv=       1 IPTECv=       6
         IZTBeg=       1 IZTEnd=       6 IZTBCv=       1 IZTECv=       6
         IWTBeg=       7 IWTEnd=       6 IWTBCv=       7 IWTECv=       6
         INTBeg=       1 INTEnd=       0 IFTBCv=       1 IFTECv=       6
 NCel replicated for PrismC:     1
 CoulSu:  IncDef=  1024 NBBP=          10296 NTPThr=   100 NPartT=    6 Incr=          17 LDynOK=F.
 CoulSu:  NPrtUS=   6 ThrOK=T IAlg=1 NPAlg=1 LenDen=           0 LWGrdD=           0 DoCopy=F.
 Enter PrismC: JobTyp=22 DoJE=F Cont=F.
 PrismC:  IPart=     0 DynPar=F LinDyn=F Incr=          17 UseFst=F UseS4=T IGathr=2.
 PrismC was handed   109213333 working-precision words and   143 shell-pairs
 Enter PrismC: JobTyp=22 DoJE=F Cont=F.
 PrismC was handed   109213333 working-precision words and   143 shell-pairs
 Enter PrismC: JobTyp=22 DoJE=F Cont=F.
 Enter PrismC: JobTyp=22 DoJE=F Cont=F.
 PrismC was handed   109213333 working-precision words and   143 shell-pairs
 PrismC was handed   109213333 working-precision words and   143 shell-pairs
 Enter PrismC: JobTyp=22 DoJE=F Cont=F.
 Enter PrismC: JobTyp=22 DoJE=F Cont=F.
 PrismC was handed   109213333 working-precision words and   143 shell-pairs
 PrismC was handed   109213333 working-precision words and   143 shell-pairs
 IPart=  2 NShTot=        1666 NShNF=        1666 NShFF=           0 NBatch=         166 AvBLen=        10.0
 IPart=  1 NShTot=        1661 NShNF=        1661 NShFF=           0 NBatch=         167 AvBLen=         9.9
 IPart=  4 NShTot=        1657 NShNF=        1657 NShFF=           0 NBatch=         170 AvBLen=         9.7
 IPart=  0 NShTot=        1779 NShNF=        1779 NShFF=           0 NBatch=         173 AvBLen=        10.3
 IPart=  3 NShTot=        1677 NShNF=        1677 NShFF=           0 NBatch=         168 AvBLen=        10.0
 IPart=  5 NShTot=        1643 NShNF=        1643 NShFF=           0 NBatch=         165 AvBLen=        10.0
 CoulSu:  NxtVal=            103.
 Polarizability after L703:
                1             2             3 
      1  0.966749D+01
      2 -0.124580D+01  0.131252D+02
      3  0.711462D+00 -0.693460D-01  0.122483D+02
 Dipole Derivatives after L703:
                 1             2             3             4             5 
      1   0.135715D+01 -0.253666D+00  0.227399D+00 -0.181340D+00  0.108121D+00
      2  -0.228506D+00  0.228601D+01  0.735818D-01  0.270594D+00 -0.503158D+00
      3   0.221499D+00  0.791208D-01  0.235073D+01 -0.813140D-01  0.683774D-01
                 6             7             8             9            10 
      1  -0.349710D-01 -0.882801D-01  0.997533D-01 -0.161887D+00 -0.918615D-04
      2   0.456356D-01  0.219778D-01 -0.260512D+00  0.775692D-01  0.000000D+00
      3  -0.214558D+00 -0.757555D-02  0.204917D+00 -0.696653D+00  0.000000D+00
                11            12            13            14            15 
      1   0.000000D+00  0.000000D+00 -0.874335D-01  0.457929D-01 -0.305412D-01
      2   0.457895D-04  0.000000D+00 -0.640660D-01 -0.522383D+00 -0.196787D+00
      3   0.000000D+00  0.483825D-04 -0.132610D+00 -0.352416D+00 -0.439565D+00
 Hessian after L703:
                1             2             3             4             5 
      1  0.344887D+00
      2 -0.543565D-01  0.909258D+00
      3  0.127404D+00  0.799709D-01  0.103602D+01
      4 -0.159500D+00  0.115049D+00 -0.284297D-01  0.132769D+00
      5  0.836537D-01 -0.293513D+00  0.351956D-01 -0.151385D+00  0.397072D+00
      6 -0.191668D-01  0.305301D-01 -0.133146D+00  0.408216D-01 -0.568563D-01
      7 -0.888412D-01  0.139987D-01 -0.285380D-01  0.963341D-02  0.338057D-01
      8  0.258389D-01 -0.161717D+00  0.174413D+00  0.231089D-01 -0.276545D-01
      9 -0.557660D-01  0.160884D+00 -0.584016D+00 -0.143722D-01  0.435843D-01
     10  0.000000D+00  0.000000D+00  0.000000D+00  0.000000D+00  0.000000D+00
     11  0.000000D+00  0.000000D+00  0.000000D+00  0.000000D+00  0.000000D+00
     12  0.000000D+00  0.000000D+00  0.000000D+00  0.000000D+00  0.000000D+00
     13 -0.965455D-01 -0.746915D-01 -0.704368D-01  0.170979D-01  0.339257D-01
     14 -0.551362D-01 -0.454028D+00 -0.289579D+00  0.132270D-01 -0.759046D-01
     15 -0.524717D-01 -0.271385D+00 -0.318860D+00  0.198023D-02 -0.219237D-01
                6             7             8             9            10 
      6  0.127931D+00
      7 -0.305008D-01  0.405611D-01
      8  0.578738D-01 -0.356921D-01  0.166474D+00
      9 -0.175974D-01  0.940109D-01 -0.160658D+00  0.767065D+00
     10  0.000000D+00  0.000000D+00  0.000000D+00  0.000000D+00  0.000000D+00
     11  0.000000D+00  0.000000D+00  0.000000D+00  0.000000D+00  0.000000D+00
     12  0.000000D+00  0.000000D+00  0.000000D+00  0.000000D+00  0.000000D+00
     13  0.884592D-02  0.386467D-01 -0.132557D-01 -0.238727D-01  0.000000D+00
     14 -0.315475D-01 -0.121122D-01  0.228981D-01 -0.438099D-01  0.000000D+00
     15  0.228121D-01 -0.349721D-01 -0.716281D-01 -0.165452D+00  0.000000D+00
               11            12            13            14            15 
     11  0.000000D+00
     12  0.000000D+00  0.000000D+00
     13  0.000000D+00  0.000000D+00  0.408009D-01
     14  0.000000D+00  0.000000D+00  0.540215D-01  0.507034D+00
     15  0.000000D+00  0.000000D+00  0.854635D-01  0.364936D+00  0.461500D+00
 Leave Link  703 at Sat Mar  4 13:44:06 2017, MaxMem=   655360000 cpu:         3.9
 (Enter /mnt/software/gaussian/g09/l716.exe)
 FrcOut:
 IF    =    42 IFX   =    57 IFXYZ =    72
 IFFX  =    87 IFFFX =   207 IFLen =    15
 IFFLen=   120 IFFFLn=     0 IEDerv=   207
 LEDerv=   773 IFroze=  1169 ICStrt= 12633
 Dipole        = 7.43154507D+00 1.55616479D-01-1.52876763D-01
 DipoleDeriv   = 1.35714572D+00-2.28505555D-01 2.21498843D-01
                -2.53666122D-01 2.28600641D+00 7.91208174D-02
                 2.27398737D-01 7.35818481D-02 2.35072718D+00
                -1.81340325D-01 2.70594430D-01-8.13139508D-02
                 1.08120883D-01-5.03157515D-01 6.83773684D-02
                -3.49709851D-02 4.56356493D-02-2.14558170D-01
                -8.82800570D-02 2.19778152D-02-7.57554862D-03
                 9.97532727D-02-2.60511766D-01 2.04917146D-01
                -1.61887315D-01 7.75691785D-02-6.96652617D-01
                -9.18614695D-05-6.93376246D-07 6.24275596D-07
                -9.76200276D-07 4.57895396D-05 6.38168064D-07
                 7.36309049D-07-3.34067611D-08 4.83825029D-05
                -8.74334766D-02-6.40659961D-02-1.32609967D-01
                 4.57929428D-02-5.22382917D-01-3.52415970D-01
                -3.05411735D-02-1.96786643D-01-4.39564773D-01
 Polarizability= 9.66748846D+00-1.24580155D+00 1.31251613D+01
                 7.11461722D-01-6.93460185D-02 1.22482550D+01
 PolarDeriv    = 3.51040184D+00-2.73957342D-01 1.75859084D+00
                -7.28839771D-02-5.82499189D-03 1.23542048D+00
                 6.06818358D-02 1.80625989D+00 9.88710288D-01
                -1.79566805D-02-1.48067847D-01 7.74377968D-01
                -1.29647951D-01 1.08801762D-02-1.84127982D-01
                 1.31064920D+00 5.96063001D-01-1.22728949D+00
                -2.54835319D+00 1.80207100D+00-1.37930114D+00
                -3.87145336D-01 1.53940309D-01-8.24052225D-01
                 1.07317694D+00-1.87491545D+00 4.76822017D+00
                 2.55246341D-01-3.43849862D-01 9.04084859D-01
                -1.98400576D-01 2.49293630D-01-2.09987062D-01
                -9.87145252D-01 1.63963153D+00-8.05773622D-01
                -1.22019400D-01-4.98303429D-01-5.59977350D-02
                 1.21665677D+00-1.60471490D-01 1.08511351D-01
                -4.07939599D-01 2.73043626D-01-1.68177857D+00
                -8.19655563D-02 1.68759745D+00-6.49129335D-01
                 6.81825396D-01-7.41154532D-02 1.44428297D+00
                 1.34635769D-01-8.73202019D-01 4.68501203D+00
                 1.43078406D-04-4.00627325D-06-1.04642723D-04
                 2.18427993D-06 9.03196620D-06-6.33198299D-05
                 1.55139111D-05-8.88897713D-05 8.40874134D-06
                 1.78728311D-06-3.48430945D-06 1.63682395D-06
                -8.01176903D-06 1.52003607D-06-2.82044137D-06
                -7.68255340D-05-1.59012842D-06-3.24132456D-06
                -8.40172330D-01-1.02980622D+00-3.23187328D-01
                -7.56629637D-01 1.23471409D-02-5.19816286D-01
                -7.25934689D-01-2.04299180D-01-4.07516030D+00
                -1.55325891D-01-1.19567626D+00-1.02933513D+00
                -3.53768857D-01-1.86059873D-01-1.05016511D+00
                -4.58062893D-01-1.36249092D+00-2.65194568D+00
 HyperPolar    = 8.60325785D+00-3.14608813D+00 8.23118092D+00
                 2.43257205D+00 9.04016573D-01 8.46836755D-01
                 2.68476455D+00 4.82421657D+00 6.43933892D+00
                -8.48698326D+00
 VibFq2-Diag1:  N=     15 IV=           6 MDV=   655346161 NE2=    43689743
 Full mass-weighted force constant matrix:
 Low frequencies --- -177.4968  -79.1783   -0.4541   -0.0016   -0.0015   -0.0004
 Low frequencies ---    0.2242    0.3757  190.0909
 OrtVCM:  Ph=1 IPass= 1 DotMx1= 0.00D+00
 OrtVCM:  IS=    1 I=    1 IndO=    1 Dot= 1.00D+00 DotN= 1.00D+00 ElMax1= 4.65D-01 ElMax1N= 4.65D-01
 OrtVCM:  Ph=2 NNew=    0 IAdd=    2 IPass= 1 DotMx2= 0.00D+00
 OrtVCM:  IS=    1 I=    2 IndO=    2 Dot= 1.00D+00 DotN= 1.00D+00 ElMax1= 4.65D-01 ElMax1N= 4.65D-01
 OrtVCM:  Ph=2 NNew=    0 IAdd=    3 IPass= 1 DotMx2= 0.00D+00
 OrtVCM:  IS=    1 I=    3 IndO=    3 Dot= 1.00D+00 DotN= 1.00D+00 ElMax1= 4.65D-01 ElMax1N= 4.65D-01
 OrtVCM:  Ph=2 NNew=    0 IAdd=    4 IPass= 1 DotMx2= 1.67D-16
 OrtVCM:  IS=    1 I=    4 IndO=    4 Dot= 1.00D+00 DotN= 1.00D+00 ElMax1= 5.79D-01 ElMax1N= 5.79D-01
 OrtVCM:  Ph=2 NNew=    0 IAdd=    5 IPass= 1 DotMx2= 1.19D-15
 OrtVCM:  IS=    1 I=    5 IndO=    5 Dot= 1.00D+00 DotN= 1.00D+00 ElMax1= 8.81D-01 ElMax1N= 8.81D-01
 OrtVCM:  Ph=2 NNew=    0 IAdd=    6 IPass= 1 DotMx2= 1.46D-16
 OrtVCM:  IS=    1 I=    6 IndO=    6 Dot= 1.00D+00 DotN= 1.00D+00 ElMax1= 8.81D-01 ElMax1N= 8.81D-01
 OrtVCM:  Ph=1 IPass= 1 DotMx1= 5.79D-01
 OrtVCM:  Ph=1 IPass= 2 DotMx1= 1.91D-16
 OrtVCM:  IS=    1 I=    1 IndO=    7 Dot= 8.64D-01 DotN= 8.64D-01 ElMax1= 8.64D-01 ElMax1N= 8.64D-01
 OrtVCM:  Ph=2 NNew=    0 IAdd=    2 IPass= 1 DotMx2= 9.96D-04
 OrtVCM:  Ph=2 NNew=    0 IAdd=    2 IPass= 2 DotMx2= 2.20D-19
 OrtVCM:  IS=    1 I=    2 IndO=    8 Dot= 8.21D-01 DotN= 8.21D-01 ElMax1= 8.21D-01 ElMax1N= 8.21D-01
 OrtVCM:  Ph=2 NNew=    0 IAdd=    3 IPass= 1 DotMx2= 9.43D-04
 OrtVCM:  Ph=2 NNew=    0 IAdd=    3 IPass= 2 DotMx2= 7.59D-19
 OrtVCM:  IS=    1 I=    3 IndO=    9 Dot= 8.21D-01 DotN= 8.21D-01 ElMax1= 8.21D-01 ElMax1N= 8.21D-01
 OrtVCM:  Ph=2 NNew=    0 IAdd=    4 IPass= 1 DotMx2= 1.85D-01
 OrtVCM:  Ph=2 NNew=    0 IAdd=    4 IPass= 2 DotMx2= 8.09D-18
 OrtVCM:  IS=    1 I=    4 IndO=   10 Dot= 7.43D-01 DotN= 7.43D-01 ElMax1= 7.43D-01 ElMax1N= 7.43D-01
 OrtVCM:  Ph=2 NNew=    0 IAdd=    5 IPass= 1 DotMx2= 2.41D-01
 OrtVCM:  Ph=2 NNew=    0 IAdd=    5 IPass= 2 DotMx2= 8.33D-17
 OrtVCM:  IS=    1 I=    5 IndO=   11 Dot= 6.62D-01 DotN= 6.62D-01 ElMax1= 6.62D-01 ElMax1N= 6.62D-01
 OrtVCM:  Ph=2 NNew=    0 IAdd=    6 IPass= 1 DotMx2= 2.59D-01
 OrtVCM:  Ph=2 NNew=    0 IAdd=    6 IPass= 2 DotMx2= 5.55D-17
 OrtVCM:  IS=    1 I=    6 IndO=   12 Dot= 3.25D-01 DotN= 3.25D-01 ElMax1= 3.25D-01 ElMax1N= 3.25D-01
 OrtVCM:  Ph=2 NNew=    0 IAdd=    7 IPass= 1 DotMx2= 2.86D-01
 OrtVCM:  Ph=2 NNew=    0 IAdd=    7 IPass= 2 DotMx2= 4.16D-17
 OrtVCM:  IS=    1 I=    7 IndO=   13 Dot= 6.61D-01 DotN= 6.61D-01 ElMax1= 6.61D-01 ElMax1N= 6.61D-01
 OrtVCM:  Ph=2 NNew=    0 IAdd=    8 IPass= 1 DotMx2= 4.88D-01
 OrtVCM:  Ph=2 NNew=    0 IAdd=    8 IPass= 2 DotMx2= 1.01D-16
 OrtVCM:  IS=    1 I=    8 IndO=   14 Dot= 3.81D-02 DotN= 3.81D-02 ElMax1= 1.34D-01 ElMax1N= 1.34D-01
 OrtVCM:  Ph=2 NNew=    0 IAdd=    9 IPass= 1 DotMx2= 6.74D-01
 OrtVCM:  Ph=2 NNew=    0 IAdd=    9 IPass= 2 DotMx2= 8.46D-17
 OrtVCM:  IS=    1 I=    9 IndO=    0 Dot= 2.39D-31 DotN= 2.39D-31 ElMax1= 3.38D-16 ElMax1N= 3.38D-16
 SchOr2:  IPass= 1 Test2A= 1.00D-01 IOff=     0 NDo=     9 NNew=     8
 OrtVCM:  Ph=1 IPass= 1 DotMx1= 4.65D-01
 OrtVCM:  Ph=1 IPass= 2 DotMx1= 2.78D-17
 OrtVCM:  IS=    1 I=    1 IndO=   15 Dot= 4.98D-01 DotN= 4.98D-01 ElMax1= 4.98D-01 ElMax1N= 4.98D-01
 SchOr2:  IPass= 1 Test2A= 1.00D-01 IOff=     9 NDo=     1 NNew=     1
 VibFq2-Diag2:  N=      9 IV=           6 MDV=   655346161 NE2=    72816239
 ******    2 imaginary frequencies (negative Signs) ****** 
 Dipole derivatives wrt mode   1:  7.16304D-03 -5.23232D-02 -1.37295D-01
 Polarizability derivatives wrt mode          1
                 1             2             3 
      1   0.222420D-01  0.238843D-01  0.715845D-01
      2   0.238843D-01  0.579710D-02  0.306057D-02
      3   0.715845D-01  0.306057D-02 -0.250340D-01
 Vibrational polarizability contributions from mode   1       0.0000452       0.0024135       0.0166174
 IFr=  0 A012= 0.14D-04 0.11D+00 0.19D-01 Act= 0.13D+00 DepolP= 0.75D+00 DepolU= 0.86D+00
 Dipole derivatives wrt mode   2: -1.74736D+00 -4.75287D-03  3.14901D-03
 Polarizability derivatives wrt mode          2
                 1             2             3 
      1   0.102999D-04  0.000000D+00  0.000000D+00
      2   0.000000D+00 -0.762668D-05  0.000000D+00
      3   0.000000D+00  0.000000D+00 -0.462921D-05
 Vibrational polarizability contributions from mode   2  398662.9929133       2.9495283       1.2947557
 IFr=  0 A012= 0.57D-11 0.17D-08 0.28D-09 Act= 0.20D-08 DepolP= 0.74D+00 DepolU= 0.85D+00
 Dipole derivatives wrt mode   3:  4.10395D-01 -9.81510D-02  3.00523D-02
 Polarizability derivatives wrt mode          3
                 1             2             3 
      1  -0.560403D-01  0.781896D-01 -0.190732D-01
      2   0.781896D-01  0.568803D-01 -0.298212D-01
      3  -0.190732D-01 -0.298212D-01  0.586220D-02
 Vibrational polarizability contributions from mode   3       0.1286353       0.0073578       0.0006898
 IFr=  0 A012= 0.67D-04 0.19D+00 0.32D-01 Act= 0.22D+00 DepolP= 0.75D+00 DepolU= 0.86D+00
 Dipole derivatives wrt mode   4: -5.55796D-01 -1.03514D+00 -3.64372D+00
 Polarizability derivatives wrt mode          4
                 1             2             3 
      1  -0.224369D-01  0.383842D-02 -0.782819D-01
      2   0.383842D-02  0.912043D-01  0.151016D+00
      3  -0.782819D-01  0.151016D+00 -0.723316D-01
 Vibrational polarizability contributions from mode   4       0.0230007       0.0797819       0.9885527
 IFr=  0 A012= 0.19D-04 0.65D+00 0.11D+00 Act= 0.76D+00 DepolP= 0.75D+00 DepolU= 0.86D+00
 Dipole derivatives wrt mode   5: -1.98766D+00  2.81608D+00 -5.42272D-01
 Polarizability derivatives wrt mode          5
                 1             2             3 
      1   0.180014D-01 -0.819747D-01  0.630282D-02
      2  -0.819747D-01  0.236187D+00 -0.860885D-01
      3   0.630282D-02 -0.860885D-01 -0.793894D-01
 Vibrational polarizability contributions from mode   5       0.2289309       0.4595268       0.0170394
 IFr=  0 A012= 0.46D-01 0.82D+00 0.14D+00 Act= 0.10D+01 DepolP= 0.57D+00 DepolU= 0.73D+00
 Dipole derivatives wrt mode   6:  8.82099D+00  2.90254D+00 -2.16982D+00
 Polarizability derivatives wrt mode          6
                 1             2             3 
      1   0.222256D+00  0.369825D-01 -0.515408D-01
      2   0.369825D-01  0.232310D-01 -0.247165D-01
      3  -0.515408D-01 -0.247165D-01 -0.246500D-01
 Vibrational polarizability contributions from mode   6       2.8081315       0.3040447       0.1699148
 IFr=  0 A012= 0.73D-01 0.54D+00 0.90D-01 Act= 0.70D+00 DepolP= 0.39D+00 DepolU= 0.56D+00
 Dipole derivatives wrt mode   7:  6.23484D+00 -5.82341D+00  4.80678D-01
 Polarizability derivatives wrt mode          7
                 1             2             3 
      1   0.255820D+00 -0.123683D+00  0.405078D-01
      2  -0.123683D+00  0.364416D+00  0.828161D-03
      3   0.405078D-01  0.828161D-03  0.304357D+00
 Vibrational polarizability contributions from mode   7       0.8713233       0.7601233       0.0051789
 IFr=  0 A012= 0.13D+01 0.29D+01 0.49D+00 Act= 0.47D+01 DepolP= 0.40D-01 DepolU= 0.76D-01
 Dipole derivatives wrt mode   8: -4.72213D+00  1.80726D+01 -7.56697D+00
 Polarizability derivatives wrt mode          8
                 1             2             3 
      1  -0.155421D-01  0.146330D+00 -0.249688D-01
      2   0.146330D+00  0.119347D+00 -0.173176D-01
      3  -0.249688D-01 -0.173176D-01  0.222214D+00
 Vibrational polarizability contributions from mode   8       0.2220946       3.2531380       0.5703040
 IFr=  0 A012= 0.16D+00 0.98D+00 0.16D+00 Act= 0.13D+01 DepolP= 0.34D+00 DepolU= 0.51D+00
 Dipole derivatives wrt mode   9:  2.58223D+00  8.56994D+00  2.02517D+01
 Polarizability derivatives wrt mode          9
                 1             2             3 
      1   0.326411D-01  0.658122D-01  0.931041D-01
      2   0.658122D-01  0.867144D-01  0.101779D+00
      3   0.931041D-01  0.101779D+00 -0.681908D-01
 Vibrational polarizability contributions from mode   9       0.0553603       0.6097682       3.4051048
 IFr=  0 A012= 0.39D-02 0.54D+00 0.90D-01 Act= 0.63D+00 DepolP= 0.72D+00 DepolU= 0.84D+00
 Diagonal vibrational polarizability:
   398667.3304352       8.4256824       6.4681575
 Diagonal vibrational hyperpolarizability:
     -252.0540729       1.5869195       0.0418911
 NorSel:  MapVib=      1      2      3      4      5      6      7      8      9
 Harmonic frequencies (cm**-1), IR intensities (KM/Mole), Raman scattering
 activities (A**4/AMU), depolarization ratios for plane and unpolarized
 incident light, reduced masses (AMU), force constants (mDyne/A),
 and normal coordinates:
                           1         2         3         4         5
                           A         A         A         A         A
       Frequencies ---  -174.7190   -0.4540  187.7106  601.1895  681.4858
    Reduced masses ---    18.9766   18.5913   18.9468   18.0438   18.3590
   Force constants ---     0.3413    0.0000    0.3933    3.8424    5.0236
    IR Intensities ---     0.0216    3.0533    0.1790   14.6571   12.1752
  Raman Activities ---     0.1319    0.0000    0.2221    0.7555    0.9987
    Depol. (Plane) ---     0.7496    0.7373    0.7487    0.7499    0.5699
    Depol. (Unpol) ---     0.8568    0.8488    0.8563    0.8571    0.7260
 Coord Atom Element:
   1     1     6         -0.00244  -0.24120   0.07129  -0.05336  -0.18170
   2     1     6         -0.01576  -0.00066  -0.04617  -0.10069   0.23775
   3     1     6         -0.05343   0.00043   0.01263  -0.35131  -0.04269
   1     2     9          0.02837  -0.24120   0.74186   0.09169  -0.17096
   2     2     9          0.03518  -0.00066   0.28121   0.16446   0.54099
   3     2     9          0.10329   0.00043  -0.13279   0.56526  -0.13446
   1     3     9          0.67544  -0.24120  -0.41236  -0.12846   0.09253
   2     3     9          0.03437  -0.00066  -0.14523   0.39820  -0.44709
   3     3     9         -0.10752   0.00043   0.04164  -0.28443  -0.27108
   1     4     9         -0.00008   0.87595   0.00029  -0.00001  -0.00001
   2     4     9         -0.02496   0.00238  -0.08880  -0.00390   0.00364
   3     4     9         -0.08003  -0.00158   0.02526  -0.00999  -0.00109
   1     5     9         -0.70219  -0.24120  -0.37482   0.07048   0.19321
   2     5     9         -0.03464  -0.00066  -0.01802  -0.49516  -0.24772
   3     5     9          0.11800   0.00043   0.05791  -0.04894   0.43360
                           6         7         8         9
                           A         A         A         A
       Frequencies ---   863.5259 1095.7262 1643.7488 1800.3702
    Reduced masses ---    13.7386   16.5674   13.6205   13.3479
   Force constants ---     6.0359   11.7195   21.6828   25.4909
    IR Intensities ---    90.9428   73.0164  406.1757  490.2412
  Raman Activities ---     0.7012    4.6922    1.2991    0.6334
    Depol. (Plane) ---     0.3880    0.0397    0.3391    0.7233
    Depol. (Unpol) ---     0.5591    0.0763    0.5065    0.8394
 Coord Atom Element:
   1     1     6          0.80621   0.53153  -0.12876   0.11736
   2     1     6          0.25343  -0.25389   0.79778   0.35383
   3     1     6         -0.19329  -0.01946  -0.33971   0.81758
   1     2     9         -0.15973  -0.26971   0.07500   0.00066
   2     2     9         -0.18228   0.44755  -0.15135  -0.02850
   3     2     9          0.07172  -0.08297   0.03804  -0.04271
   1     3     9         -0.21285   0.02208   0.03624  -0.01962
   2     3     9         -0.05682  -0.03405  -0.12899   0.06609
   3     3     9         -0.20954   0.43185   0.32948  -0.24927
   1     4     9         -0.00001   0.00001  -0.00001   0.00000
   2     4     9          0.00338  -0.00189   0.00248   0.00091
   3     4     9         -0.00029   0.00056  -0.00105   0.00225
   1     5     9         -0.13664  -0.08811  -0.02990  -0.05517
   2     5     9          0.07565  -0.25124  -0.22605  -0.26200
   3     5     9          0.26020  -0.33715  -0.15189  -0.22667
 Harmonic frequencies (cm**-1), IR intensities (KM/Mole), Raman scattering
 activities (A**4/AMU), depolarization ratios for plane and unpolarized
 incident light, reduced masses (AMU), force constants (mDyne/A),
 and normal coordinates:
                      1                      2                      3
                      A                      A                      A
 Frequencies --   -174.7190                -0.4540               187.7106
 Red. masses --     18.9766                18.5913                18.9468
 Frc consts  --      0.3413                 0.0000                 0.3933
 IR Inten    --      0.0216                 3.0533                 0.1790
 Raman Activ --      0.1319                 0.0000                 0.2221
 Depolar (P) --      0.7496                 0.7373                 0.7487
 Depolar (U) --      0.8568                 0.8488                 0.8563
  Atom  AN      X      Y      Z        X      Y      Z        X      Y      Z
     1   6     0.00  -0.02  -0.05    -0.24   0.00   0.00     0.07  -0.05   0.01
     2   9     0.03   0.04   0.10    -0.24   0.00   0.00     0.74   0.28  -0.13
     3   9     0.68   0.03  -0.11    -0.24   0.00   0.00    -0.41  -0.15   0.04
     4   9     0.00  -0.02  -0.08     0.88   0.00   0.00     0.00  -0.09   0.03
     5   9    -0.70  -0.03   0.12    -0.24   0.00   0.00    -0.37  -0.02   0.06
                      4                      5                      6
                      A                      A                      A
 Frequencies --    601.1895               681.4858               863.5259
 Red. masses --     18.0438                18.3590                13.7386
 Frc consts  --      3.8424                 5.0236                 6.0359
 IR Inten    --     14.6571                12.1752                90.9428
 Raman Activ --      0.7555                 0.9987                 0.7012
 Depolar (P) --      0.7499                 0.5699                 0.3880
 Depolar (U) --      0.8571                 0.7260                 0.5591
  Atom  AN      X      Y      Z        X      Y      Z        X      Y      Z
     1   6    -0.05  -0.10  -0.35    -0.18   0.24  -0.04     0.81   0.25  -0.19
     2   9     0.09   0.16   0.57    -0.17   0.54  -0.13    -0.16  -0.18   0.07
     3   9    -0.13   0.40  -0.28     0.09  -0.45  -0.27    -0.21  -0.06  -0.21
     4   9     0.00   0.00  -0.01     0.00   0.00   0.00     0.00   0.00   0.00
     5   9     0.07  -0.50  -0.05     0.19  -0.25   0.43    -0.14   0.08   0.26
                      7                      8                      9
                      A                      A                      A
 Frequencies --   1095.7262              1643.7488              1800.3702
 Red. masses --     16.5674                13.6205                13.3479
 Frc consts  --     11.7195                21.6828                25.4909
 IR Inten    --     73.0164               406.1757               490.2412
 Raman Activ --      4.6922                 1.2991                 0.6334
 Depolar (P) --      0.0397                 0.3391                 0.7233
 Depolar (U) --      0.0763                 0.5065                 0.8394
  Atom  AN      X      Y      Z        X      Y      Z        X      Y      Z
     1   6     0.53  -0.25  -0.02    -0.13   0.80  -0.34     0.12   0.35   0.82
     2   9    -0.27   0.45  -0.08     0.08  -0.15   0.04     0.00  -0.03  -0.04
     3   9     0.02  -0.03   0.43     0.04  -0.13   0.33    -0.02   0.07  -0.25
     4   9     0.00   0.00   0.00     0.00   0.00   0.00     0.00   0.00   0.00
     5   9    -0.09  -0.25  -0.34    -0.03  -0.23  -0.15    -0.06  -0.26  -0.23

 -------------------
 - Thermochemistry -
 -------------------
 Temperature   298.150 Kelvin.  Pressure   1.00000 Atm.
 Atom     1 has atomic number  6 and mass  12.00000
 Atom     2 has atomic number  9 and mass  18.99840
 Atom     3 has atomic number  9 and mass  18.99840
 Atom     4 has atomic number  9 and mass  18.99840
 Atom     5 has atomic number  9 and mass  18.99840
 Molecular mass:    87.99361 amu.
 Principal axes and moments of inertia in atomic units:
                           1         2         3
     Eigenvalues --   277.80356********************
           X            1.00000   0.00005  -0.00004
           Y           -0.00005   1.00000  -0.00053
           Z            0.00004   0.00053   1.00000
 This molecule is an asymmetric top.
 Rotational symmetry number  1.
 Rotational temperatures (Kelvin)      0.31178     0.00559     0.00559
 Rotational constants (GHZ):           6.49647     0.11658     0.11639
    2 imaginary frequencies ignored.
 Zero-point vibrational energy      41114.2 (Joules/Mol)
                                    9.82653 (Kcal/Mol)
 Warning -- explicit consideration of   2 degrees of freedom as
           vibrations may cause significant error
 Vibrational temperatures:    270.07   864.98   980.50  1242.42  1576.50
          (Kelvin)           2364.98  2590.33
 
 Zero-point correction=                           0.015660 (Hartree/Particle)
 Thermal correction to Energy=                    0.019443
 Thermal correction to Enthalpy=                  0.020388
 Thermal correction to Gibbs Free Energy=        -0.015980
 Sum of electronic and zero-point Energies=           -435.104227
 Sum of electronic and thermal Energies=              -435.100443
 Sum of electronic and thermal Enthalpies=            -435.099499
 Sum of electronic and thermal Free Energies=         -435.135867
 
                     E (Thermal)             CV                S
                      KCal/Mol        Cal/Mol-Kelvin    Cal/Mol-Kelvin
 Total                   12.201             10.618             76.542
 Electronic               0.000              0.000              1.377
 Translational            0.889              2.981             39.337
 Rotational               0.889              2.981             32.567
 Vibrational             10.423              4.657              3.261
 Vibration     1          0.632              1.857              2.250
 Vibration     2          0.959              1.029              0.448
                       Q            Log10(Q)             Ln(Q)
 Total Bot       0.224035D+08          7.350315         16.924726
 Total V=0       0.357439D+15         14.553202         33.509987
 Vib (Bot)       0.118111D-06         -6.927710        -15.951641
 Vib (Bot)    1  0.106710D+01          0.028205          0.064945
 Vib (Bot)    2  0.248070D+00         -0.605426         -1.394044
 Vib (V=0)       0.188442D+01          0.275178          0.633620
 Vib (V=0)    1  0.167843D+01          0.224904          0.517860
 Vib (V=0)    2  0.105816D+01          0.024550          0.056528
 Electronic      0.200000D+01          0.301030          0.693147
 Translational   0.324438D+08          7.511132         17.295020
 Rotational      0.292323D+07          6.465863         14.888199
 
                                                          Distorted Ethanol
                                                             IR Spectrum
 
     1           1                                     1                                                                             
     8           6                                     0                8           6     6                            1             
     0           4                                     9                6           8     0                            8             
     0           4                                     6                4           1     1                            8             
 
     X           X                                     X                X           X     X                            X             
     X           X                                     X                X                                                            
     X           X                                     X                X                                                            
     X           X                                                      X                                                            
     X           X                                                                                                                   
     X           X                                                                                                                   
     X           X                                                                                                                   
     X           X                                                                                                                   
     X           X                                                                                                                   
     X           X                                                                                                                   
     X           X                                                                                                                   
     X           X                                                                                                                   
     X           X                                                                                                                   
     X           X                                                                                                                   
     X           X                                                                                                                   
     X           X                                                                                                                   
     X           X                                                                                                                   
     X                                                                                                                               
     X                                                                                                                               
     X                                                                                                                               
 
 
                                                          Distorted Ethanol
                                                            Raman Spectrum
 
     1           1                                     1                                                                             
     8           6                                     0                8           6     6                            1             
     0           4                                     9                6           8     0                            8             
     0           4                                     6                4           1     1                            8             
 
     X           X                                     X                X           X     X                            X             
     X           X                                     X                X           X     X                                          
     X           X                                     X                X           X     X                                          
                 X                                     X                            X                                                
                 X                                     X                                                                             
                 X                                     X                                                                             
                                                       X                                                                             
                                                       X                                                                             
                                                       X                                                                             
                                                       X                                                                             
                                                       X                                                                             
                                                       X                                                                             
                                                       X                                                                             
                                                       X                                                                             
                                                       X                                                                             
                                                       X                                                                             
                                                       X                                                                             
                                                       X                                                                             
                                                       X                                                                             
                                                       X                                                                             
 
 Forces in standard orientation:
 -------------------------------------------------------------------
 Center     Atomic                   Forces (Hartrees/Bohr)
 Number     Number              X              Y              Z
 -------------------------------------------------------------------
      1        6           0.162957471   -0.003646097   -0.033112937
      2        9          -0.078690844    0.044845637   -0.000694814
      3        9          -0.049935243   -0.038222800   -0.034072265
      4        9          -0.000000925   -0.000000012   -0.000000018
      5        9          -0.034330460   -0.002976727    0.067880034
 -------------------------------------------------------------------
 ***** Axes restored to original set *****
 Rotating derivatives, DoTrsp=F IDiff=-2 LEDeriv=    772 LFDPrp=       0 LDFDPr=       0.
 -------------------------------------------------------------------
 Center     Atomic                   Forces (Hartrees/Bohr)
 Number     Number              X              Y              Z
 -------------------------------------------------------------------
      1        6           0.028689948   -0.158659768    0.040851719
      2        9           0.010614078    0.068666579   -0.058104260
      3        9           0.027253827    0.056900916    0.033688942
      4        9           0.000000033    0.000000911   -0.000000162
      5        9          -0.066557886    0.033091362   -0.016436239
 -------------------------------------------------------------------
 Cartesian Forces:  Max     0.158659768 RMS     0.055844625
 Z-matrix is all fixed cartesians, so copy forces.
 Force constants in Cartesian coordinates: 
                1             2             3             4             5 
      1  0.100706D+01
      2  0.138853D+00  0.350158D+00
      3  0.719177D-01  0.840342D-01  0.932951D+00
      4 -0.152530D+00 -0.225896D-01  0.653576D-01  0.160999D+00
      5 -0.365192D-01 -0.127699D+00  0.777266D-01  0.466199D-01  0.866291D-01
      6  0.722483D-01  0.485422D-01 -0.305930D+00 -0.116204D+00 -0.845463D-01
      7 -0.632484D+00 -0.345889D-01  0.794659D-01 -0.376899D-01 -0.912024D-02
      8 -0.354856D-02 -0.844987D-01  0.112468D-02 -0.239395D-01  0.185159D-01
      9  0.873339D-01  0.738329D-02 -0.117591D+00  0.622495D-01  0.136376D-01
     10  0.000000D+00  0.000000D+00  0.000000D+00  0.000000D+00  0.000000D+00
     11  0.000000D+00  0.000000D+00  0.000000D+00  0.000000D+00  0.000000D+00
     12  0.000000D+00  0.000000D+00  0.000000D+00  0.000000D+00  0.000000D+00
     13 -0.222044D+00 -0.816744D-01 -0.216741D+00  0.292215D-01 -0.980424D-03
     14 -0.987852D-01 -0.137960D+00 -0.162885D+00 -0.907555D-04  0.225542D-01
     15 -0.231500D+00 -0.139960D+00 -0.509429D+00 -0.114036D-01 -0.681786D-02
                6             7             8             9            10 
      6  0.410145D+00
      7  0.449581D-01  0.808677D+00
      8  0.213924D-01  0.752159D-01  0.341072D-01
      9 -0.164444D-01 -0.543501D-01  0.167910D-02  0.131316D+00
     10  0.000000D+00  0.000000D+00  0.000000D+00  0.000000D+00  0.000000D+00
     11  0.000000D+00  0.000000D+00  0.000000D+00  0.000000D+00  0.000000D+00
     12  0.000000D+00  0.000000D+00  0.000000D+00  0.000000D+00  0.000000D+00
     13 -0.100286D-02 -0.138503D+00 -0.477278D-01 -0.952333D-01  0.000000D+00
     14  0.146117D-01 -0.315067D-01  0.318756D-01 -0.227000D-01  0.000000D+00
     15 -0.877703D-01 -0.700739D-01 -0.241962D-01  0.271976D-02  0.000000D+00
               11            12            13            14            15 
     11  0.000000D+00
     12  0.000000D+00  0.000000D+00
     13  0.000000D+00  0.000000D+00  0.331325D+00
     14  0.000000D+00  0.000000D+00  0.130383D+00  0.835303D-01
     15  0.000000D+00  0.000000D+00  0.312977D+00  0.170974D+00  0.594480D+00
 Final forces over variables, Energy=-4.35119887D+02:
  2.86899480D-02 1.06140776D-02 2.72538273D-02 3.34799130D-08
 -6.65578863D-02-1.58659768D-01 6.86665793D-02 5.69009163D-02
  9.10777637D-07 3.30913620D-02 4.08517190D-02-5.81042600D-02
  3.36889420D-02-1.61582737D-07-1.64362394D-02
 Leave Link  716 at Sat Mar  4 13:44:06 2017, MaxMem=   655360000 cpu:         0.1
 (Enter /mnt/software/gaussian/g09/l103.exe)

 GradGradGradGradGradGradGradGradGradGradGradGradGradGradGradGradGradGrad
 Berny optimization.
 Search for a local minimum.
 Step number   1 out of a maximum of    2
 All quantities printed in internal units (Hartrees-Bohrs-Radians)
 Second derivative matrix not updated -- analytic derivatives used.
 The second derivative matrix:
                          X1        Y1        Z1        X2        Y2
           X1           1.00706
           Y1           0.13885   0.35016
           Z1           0.07192   0.08403   0.93295
           X2          -0.15253  -0.02259   0.06536   0.16100
           Y2          -0.03652  -0.12770   0.07773   0.04662   0.08663
           Z2           0.07225   0.04854  -0.30593  -0.11620  -0.08455
           X3          -0.63248  -0.03459   0.07947  -0.03769  -0.00912
           Y3          -0.00355  -0.08450   0.00112  -0.02394   0.01852
           Z3           0.08733   0.00738  -0.11759   0.06225   0.01364
           X4           0.00000   0.00000   0.00000   0.00000   0.00000
           Y4           0.00000   0.00000   0.00000   0.00000   0.00000
           Z4           0.00000   0.00000   0.00000   0.00000   0.00000
           X5          -0.22204  -0.08167  -0.21674   0.02922  -0.00098
           Y5          -0.09879  -0.13796  -0.16289  -0.00009   0.02255
           Z5          -0.23150  -0.13996  -0.50943  -0.01140  -0.00682
                          Z2        X3        Y3        Z3        X4
           Z2           0.41014
           X3           0.04496   0.80868
           Y3           0.02139   0.07522   0.03411
           Z3          -0.01644  -0.05435   0.00168   0.13132
           X4           0.00000   0.00000   0.00000   0.00000   0.00000
           Y4           0.00000   0.00000   0.00000   0.00000   0.00000
           Z4           0.00000   0.00000   0.00000   0.00000   0.00000
           X5          -0.00100  -0.13850  -0.04773  -0.09523   0.00000
           Y5           0.01461  -0.03151   0.03188  -0.02270   0.00000
           Z5          -0.08777  -0.07007  -0.02420   0.00272   0.00000
                          Y4        Z4        X5        Y5        Z5
           Y4           0.00000
           Z4           0.00000   0.00000
           X5           0.00000   0.00000   0.33133
           Y5           0.00000   0.00000   0.13038   0.08353
           Z5           0.00000   0.00000   0.31298   0.17097   0.59448
 ITU=  0
     Eigenvalues ---   -0.02191   0.00000   0.02526   0.24717   0.32083
     Eigenvalues ---    0.39127   0.77927   1.47097   1.70123
 Eigenvalue     1 is  -2.19D-02 should be greater than     0.000000 Eigenvector:
                          Y5        Y3        Z5        Z3        X5
   1                    0.69323  -0.66781  -0.12449   0.11535  -0.11093
                          X2        X3        X4        Z2        X1
   1                   -0.09757   0.09642   0.07401  -0.04898   0.04663
 Eigenvalue     2 is  -1.45D-07 should be greater than     0.000000 Eigenvector:
                          Y4        Y1        Y2        Y5        Y3
   1                    0.86974  -0.22789  -0.22789  -0.22789  -0.22789
                          Z4        Z1        Z2        Z3        Z5
   1                   -0.16697   0.04375   0.04375   0.04375   0.04375
 Quadratic step=7.615D+00 exceeds max=3.000D-01 adjusted using Lamda=-2.944D-01.
 Angle between NR and scaled steps=  85.92 degrees.
 Angle between quadratic step and forces=  11.25 degrees.
 Linear search not attempted -- first point.
 TrRot= -0.001540  0.008763 -0.000656  0.647033 -0.000062 -0.646941
 Variable       Old X    -DE/DX   Delta X   Delta X   Delta X     New X
                                 (Linear)    (Quad)   (Total)
    X1       -1.31433   0.02869   0.00000   0.05461   0.05207  -1.26226
    Y1       11.73458  -0.15866   0.00000  -0.23549  -0.22680  11.50778
    Z1       -1.19325   0.04085   0.00000   0.01448   0.01420  -1.17905
    X2       -2.11124   0.01061   0.00000   0.01116   0.00857  -2.10268
    Y2       10.87992   0.06867   0.00000   0.07360   0.08213  10.96205
    Z2        0.95118  -0.05810   0.00000  -0.06091  -0.06126   0.88993
    X3        0.95673   0.02725   0.00000   0.03830   0.03574   0.99247
    Y3       11.75748   0.05690   0.00000   0.07786   0.08677  11.84425
    Z3       -1.57068   0.03369   0.00000   0.05666   0.05650  -1.51419
    X4       -1.73472   0.00000   0.00000  -0.00034  -0.00025  -1.73497
    Y4      -20.20008   0.00000   0.00000  -0.00856  -0.00014 -20.20022
    Z4        4.82126   0.00000   0.00000   0.00245   0.00094   4.82221
    X5       -2.33218  -0.06656   0.00000  -0.09372  -0.09613  -2.42831
    Y5       10.99432   0.03309   0.00000   0.04939   0.05804  11.05236
    Z5       -3.10239  -0.01644   0.00000  -0.01002  -0.01038  -3.11277
         Item               Value     Threshold  Converged?
 Maximum Force            0.158660     0.000450     NO 
 RMS     Force            0.055845     0.000300     NO 
 Maximum Displacement     0.226804     0.001800     NO 
 RMS     Displacement     0.077305     0.001200     NO 
 Predicted change in Energy=-4.508218D-02
 GradGradGradGradGradGradGradGradGradGradGradGradGradGradGradGradGradGrad

 Leave Link  103 at Sat Mar  4 13:44:06 2017, MaxMem=   655360000 cpu:         0.1
 (Enter /mnt/software/gaussian/g09/l9999.exe)

 Test job not archived.
 1\1\GINC-TP-LINUX1\Freq\UHF\6-31G(d)\C1F4(1+,2)\THOMAS\04-Mar-2017\0\\
 #P UHF/6-31g* IOP(7/33=1) IOP(7/8=11) Freq\\Distorted Ethanol\\1,2\C,-
 0.695515,6.209673,-0.631439\F,-1.117222,5.757404,0.503345\F,0.506281,6
 .22179,-0.831169\F,-0.917974,-10.689422,2.551303\F,-1.234136,5.817945,
 -1.641715\\Version=ES64L-G09RevD.01\State=2-A\HF=-435.1198868\S2=0.752
 673\S2-1=0.\S2A=0.750003\RMSD=6.062e-09\RMSF=5.584e-02\ZeroPoint=0.015
 6596\Thermal=0.0194434\Dipole=-0.0359124,7.3204772,-1.2979885\DipoleDe
 riv=2.3301991,0.2621616,0.0270124,0.2528098,1.3090196,0.0116329,0.0340
 098,-0.0120762,2.3546606,-0.2492831,-0.0333144,0.1079801,-0.1041342,-0
 .1236501,0.1808725,0.1419583,0.0295696,-0.5261228,-0.7367727,-0.164532
 9,0.0194166,0.023067,-0.0738521,-0.0087705,0.1135568,0.0362025,-0.2348
 197,0.0000482,-0.0000017,0.0000007,-0.0000017,-0.0000871,0.0000253,0.0
 000014,0.0000251,0.0000412,-0.3441914,-0.0643126,-0.1544098,-0.1717409
 ,-0.1114304,-0.1837603,-0.2895263,-0.053721,-0.5937593\Polar=12.339695
 9,0.8175918,9.350767,-0.4108058,-0.3621374,13.3504419\PolarDeriv=-1.46
 58466,1.4042442,-0.1583666,0.1188496,-0.0898011,-0.1058188,1.3664792,-
 0.0491709,3.4243096,-0.1190866,-0.2320718,1.9147701,0.2970862,-0.12339
 89,0.0899409,-0.0252531,1.9011568,-0.1614632,-1.6435205,-0.7769286,-0.
 2571478,1.7763612,0.3491542,-0.6488724,-0.7085141,-0.6084707,-1.711298
 6,0.21369,1.5754394,-0.9749432,1.0557871,0.3696218,0.8198725,-0.901812
 3,-1.2785932,5.3027737,5.059255,0.0037509,0.7289828,-0.5556474,0.04273
 26,1.4131331,0.0410766,1.2552237,-0.3154296,-0.0284045,-0.2063506,-0.2
 000613,-0.385094,-0.0151247,-0.1522682,1.7169176,0.1391261,-0.808991,-
 0.0000075,-0.0000764,-0.0000037,0.0000146,0.000003,-0.0000079,-0.00006
 6,0.0000117,0.0001265,0.0000124,-0.000064,-0.0000803,0.0000157,0.00000
 06,-0.0000446,-0.0000096,-0.0000718,0.0000557,-1.9498803,-0.6309901,-0
 .3134646,-1.3395779,-0.3020888,-0.6584341,-0.6989757,-0.5975939,-1.397
 708,-0.0662113,-1.136953,-0.7396853,-0.9677949,-0.2310988,-0.7575007,-
 0.7898426,-0.7616179,-4.3323752\HyperPolar=-11.0013527,5.4350401,1.569
 9209,7.3688332,2.2575918,0.5276426,-0.9534723,3.9649199,9.4622428,-0.8
 435732\PG=C01 [X(C1F4)]\NImag=2\\1.00705818,0.13885293,0.35015781,0.07
 191773,0.08403420,0.93295061,-0.15253009,-0.02258959,0.06535764,0.1609
 9855,-0.03651924,-0.12769914,0.07772662,0.04661990,0.08662909,0.072248
 29,0.04854219,-0.30593017,-0.11620351,-0.08454632,0.41014489,-0.632484
 12,-0.03458892,0.07946590,-0.03768992,-0.00912024,0.04495808,0.8086766
 7,-0.00354856,-0.08449870,0.00112468,-0.02393954,0.01851588,0.02139239
 ,0.07521592,0.03410721,0.08733387,0.00738329,-0.11759128,0.06224946,0.
 01363756,-0.01644442,-0.05435008,0.00167910,0.13131593,-0.00000016,0.,
 -0.00000006,0.00000001,0.,0.,0.00000007,0.,0.,0.00000007,0.00000004,0.
 00000014,-0.00000007,0.,-0.00000002,0.00000002,-0.00000002,0.,0.000000
 01,0.,-0.00000011,-0.00000005,-0.00000003,-0.00000009,0.,0.,0.00000001
 ,0.00000002,0.,0.,0.00000002,0.00000003,0.00000003,-0.22204380,-0.0816
 7442,-0.21674120,0.02922145,-0.00098042,-0.00100286,-0.13850270,-0.047
 72782,-0.09523325,0.00000001,0.,0.,0.33132504,-0.09878518,-0.13796011,
 -0.16288542,-0.00009076,0.02255419,0.01461172,-0.03150674,0.03187562,-
 0.02269996,0.00000001,0.,0.00000001,0.13038266,0.08353030,-0.23149983,
 -0.13995963,-0.50942908,-0.01140359,-0.00681786,-0.08777032,-0.0700739
 3,-0.02419617,0.00271976,0.00000004,0.00000001,0.00000003,0.31297730,0
 .17097365,0.59447960\\-0.02868995,0.15865977,-0.04085172,-0.01061408,-
 0.06866658,0.05810426,-0.02725383,-0.05690092,-0.03368894,-0.00000003,
 -0.00000091,0.00000016,0.06655789,-0.03309136,0.01643624\\\@


 If fifty million people say a stupid thing,
 it is still a stupid thing.
                   -- Anatole France
 Job cpu time:       0 days  0 hours  0 minutes 21.2 seconds.
 File lengths (MBytes):  RWF=     12 Int=      0 D2E=      0 Chk=      2 Scr=      1
 Normal termination of Gaussian 09 at Sat Mar  4 13:44:06 2017.
