 Entering Gaussian System, Link 0=g09
 Input=/home/thomas/cf4/DD-vMCG/dd_data/gwp20_V1_dd_data.com
 Output=/home/thomas/cf4/DD-vMCG/dd_data/gwp20_V1_dd_data.log
 Initial command:
 /mnt/software/gaussian/g09/l1.exe "/scratch/Gau-30529.inp" -scrdir="/scratch/"
 Entering Link 1 = /mnt/software/gaussian/g09/l1.exe PID=     30532.
  
 Copyright (c) 1988,1990,1992,1993,1995,1998,2003,2009,2013,
            Gaussian, Inc.  All Rights Reserved.
  
 This is part of the Gaussian(R) 09 program.  It is based on
 the Gaussian(R) 03 system (copyright 2003, Gaussian, Inc.),
 the Gaussian(R) 98 system (copyright 1998, Gaussian, Inc.),
 the Gaussian(R) 94 system (copyright 1995, Gaussian, Inc.),
 the Gaussian 92(TM) system (copyright 1992, Gaussian, Inc.),
 the Gaussian 90(TM) system (copyright 1990, Gaussian, Inc.),
 the Gaussian 88(TM) system (copyright 1988, Gaussian, Inc.),
 the Gaussian 86(TM) system (copyright 1986, Carnegie Mellon
 University), and the Gaussian 82(TM) system (copyright 1983,
 Carnegie Mellon University). Gaussian is a federally registered
 trademark of Gaussian, Inc.
  
 This software contains proprietary and confidential information,
 including trade secrets, belonging to Gaussian, Inc.
  
 This software is provided under written license and may be
 used, copied, transmitted, or stored only in accord with that
 written license.
  
 The following legend is applicable only to US Government
 contracts under FAR:
  
                    RESTRICTED RIGHTS LEGEND
  
 Use, reproduction and disclosure by the US Government is
 subject to restrictions as set forth in subparagraphs (a)
 and (c) of the Commercial Computer Software - Restricted
 Rights clause in FAR 52.227-19.
  
 Gaussian, Inc.
 340 Quinnipiac St., Bldg. 40, Wallingford CT 06492
  
  
 ---------------------------------------------------------------
 Warning -- This program may not be used in any manner that
 competes with the business of Gaussian, Inc. or will provide
 assistance to any competitor of Gaussian, Inc.  The licensee
 of this program is prohibited from giving any competitor of
 Gaussian, Inc. access to this program.  By using this program,
 the user acknowledges that Gaussian, Inc. is engaged in the
 business of creating and licensing software in the field of
 computational chemistry and represents and warrants to the
 licensee that it is not a competitor of Gaussian, Inc. and that
 it will not use this program in any manner prohibited above.
 ---------------------------------------------------------------
  

 Cite this work as:
 Gaussian 09, Revision D.01,
 M. J. Frisch, G. W. Trucks, H. B. Schlegel, G. E. Scuseria, 
 M. A. Robb, J. R. Cheeseman, G. Scalmani, V. Barone, B. Mennucci, 
 G. A. Petersson, H. Nakatsuji, M. Caricato, X. Li, H. P. Hratchian, 
 A. F. Izmaylov, J. Bloino, G. Zheng, J. L. Sonnenberg, M. Hada, 
 M. Ehara, K. Toyota, R. Fukuda, J. Hasegawa, M. Ishida, T. Nakajima, 
 Y. Honda, O. Kitao, H. Nakai, T. Vreven, J. A. Montgomery, Jr., 
 J. E. Peralta, F. Ogliaro, M. Bearpark, J. J. Heyd, E. Brothers, 
 K. N. Kudin, V. N. Staroverov, T. Keith, R. Kobayashi, J. Normand, 
 K. Raghavachari, A. Rendell, J. C. Burant, S. S. Iyengar, J. Tomasi, 
 M. Cossi, N. Rega, J. M. Millam, M. Klene, J. E. Knox, J. B. Cross, 
 V. Bakken, C. Adamo, J. Jaramillo, R. Gomperts, R. E. Stratmann, 
 O. Yazyev, A. J. Austin, R. Cammi, C. Pomelli, J. W. Ochterski, 
 R. L. Martin, K. Morokuma, V. G. Zakrzewski, G. A. Voth, 
 P. Salvador, J. J. Dannenberg, S. Dapprich, A. D. Daniels, 
 O. Farkas, J. B. Foresman, J. V. Ortiz, J. Cioslowski, 
 and D. J. Fox, Gaussian, Inc., Wallingford CT, 2013.
 
 ******************************************
 Gaussian 09:  ES64L-G09RevD.01 24-Apr-2013
                 4-Mar-2017 
 ******************************************
 %mem=5000MB
 %Nprocshared=6
 Will use up to    6 processors via shared memory.
 %chk=gwp20_V1_dd_data.chk
 ------------------------------------------
 #P UHF/6-31g* IOP(7/33=1) IOP(7/8=11) Freq
 ------------------------------------------
 1/10=4,30=1,38=1/1,3;
 2/12=2,17=6,18=5,40=1/2;
 3/5=1,6=6,7=1,11=2,16=1,25=1,30=1,71=2,116=2,140=1/1,2,3;
 4//1;
 5/5=2,38=5,98=1/2;
 8/6=4,10=90,11=11/1;
 10/13=10,15=4/2;
 11/6=3,8=1,9=11,15=111,16=1/1,2,10;
 10/6=1/2;
 6/7=2,8=2,9=2,10=2,18=1,28=1/1;
 7/8=11,10=1,25=1,33=1/1,2,3,16;
 1/10=4,30=1/3;
 99//99;
 Leave Link    1 at Sat Mar  4 13:38:48 2017, MaxMem=   655360000 cpu:         0.2
 (Enter /mnt/software/gaussian/g09/l101.exe)
 -----------------
 Distorted Ethanol
 -----------------
 Symbolic Z-matrix:
 Charge =  1 Multiplicity = 2
 6                    -0.42792   5.25071  -0.74853 
 9                     0.10486   4.23459  -0.1399 
 9                     0.11425   6.34596  -0.41569 
 9                    -2.28776  -8.20894   2.84244 
 9                    -0.75318   5.12725  -1.91538 
 
 NAtoms=      5 NQM=        5 NQMF=       0 NMMI=      0 NMMIF=      0
                NMic=       0 NMicF=      0.
                    Isotopes and Nuclear Properties:
 (Nuclear quadrupole moments (NQMom) in fm**2, nuclear magnetic moments (NMagM)
  in nuclear magnetons)

  Atom         1           2           3           4           5
 IAtWgt=          12          19          19          19          19
 AtmWgt=  12.0000000  18.9984033  18.9984033  18.9984033  18.9984033
 NucSpn=           0           1           1           1           1
 AtZEff=   0.0000000   0.0000000   0.0000000   0.0000000   0.0000000
 NQMom=    0.0000000   0.0000000   0.0000000   0.0000000   0.0000000
 NMagM=    0.0000000   2.6288670   2.6288670   2.6288670   2.6288670
 AtZNuc=   6.0000000   9.0000000   9.0000000   9.0000000   9.0000000
 Leave Link  101 at Sat Mar  4 13:38:49 2017, MaxMem=   655360000 cpu:         0.4
 (Enter /mnt/software/gaussian/g09/l103.exe)

 GradGradGradGradGradGradGradGradGradGradGradGradGradGradGradGradGradGrad
 Berny optimization.
 Initialization pass.
 Trust Radius=3.00D-01 FncErr=1.00D-07 GrdErr=1.00D-07
 Number of steps in this run=      2 maximum allowed number of steps=      2.
 GradGradGradGradGradGradGradGradGradGradGradGradGradGradGradGradGradGrad

 Leave Link  103 at Sat Mar  4 13:38:49 2017, MaxMem=   655360000 cpu:         0.1
 (Enter /mnt/software/gaussian/g09/l202.exe)
                          Input orientation:                          
 ---------------------------------------------------------------------
 Center     Atomic      Atomic             Coordinates (Angstroms)
 Number     Number       Type             X           Y           Z
 ---------------------------------------------------------------------
      1          6           0       -0.427922    5.250711   -0.748525
      2          9           0        0.104864    4.234585   -0.139898
      3          9           0        0.114245    6.345964   -0.415694
      4          9           0       -2.287758   -8.208942    2.842442
      5          9           0       -0.753179    5.127255   -1.915384
 ---------------------------------------------------------------------
                    Distance matrix (angstroms):
                    1          2          3          4          5
     1  C    0.000000
     2  F    1.298769   0.000000
     3  F    1.266610   2.129336   0.000000
     4  F   14.054049  13.017694  15.107295   0.000000
     5  F    1.217618   2.164590   2.118194  14.242401   0.000000
 Stoichiometry    CF4(1+,2)
 Framework group  C1[X(CF4)]
 Deg. of freedom     9
 Full point group                 C1      NOp   1
 Largest Abelian subgroup         C1      NOp   1
 Largest concise Abelian subgroup C1      NOp   1
                         Standard orientation:                         
 ---------------------------------------------------------------------
 Center     Atomic      Atomic             Coordinates (Angstroms)
 Number     Number       Type             X           Y           Z
 ---------------------------------------------------------------------
      1          6           0       -2.984793    0.039926   -0.199218
      2          9           0       -1.933617   -0.572546    0.255434
      3          9           0       -4.023064   -0.683082   -0.139620
      4          9           0       11.068180    0.004285   -0.028975
      5          9           0       -3.121637    1.224725    0.045972
 ---------------------------------------------------------------------
 Rotational constants (GHZ):     11.0463603      0.1684568      0.1661601
 Leave Link  202 at Sat Mar  4 13:38:49 2017, MaxMem=   655360000 cpu:         0.0
 (Enter /mnt/software/gaussian/g09/l301.exe)
 Standard basis: 6-31G(d) (6D, 7F)
 Ernie: Thresh=  0.10000D-02 Tol=  0.10000D-05 Strict=F.
 There are    75 symmetry adapted cartesian basis functions of A   symmetry.
 There are    75 symmetry adapted basis functions of A   symmetry.
    75 basis functions,   140 primitive gaussians,    75 cartesian basis functions
    21 alpha electrons       20 beta electrons
       nuclear repulsion energy       139.3717075073 Hartrees.
 IExCor=    0 DFT=F Ex=HF Corr=None ExCW=0 ScaHFX=  1.000000
 ScaDFX=  1.000000  1.000000  1.000000  1.000000 ScalE2=  1.000000  1.000000
 IRadAn=      0 IRanWt=     -1 IRanGd=            0 ICorTp=0 IEmpDi=  4
 NAtoms=    5 NActive=    5 NUniq=    5 SFac= 1.00D+00 NAtFMM=   60 NAOKFM=F Big=F
 Integral buffers will be    131072 words long.
 Raffenetti 2 integral format.
 Two-electron integral symmetry is turned on.
 Leave Link  301 at Sat Mar  4 13:38:49 2017, MaxMem=   655360000 cpu:         0.3
 (Enter /mnt/software/gaussian/g09/l302.exe)
 NPDir=0 NMtPBC=     1 NCelOv=     1 NCel=       1 NClECP=     1 NCelD=      1
         NCelK=      1 NCelE2=     1 NClLst=     1 CellRange=     0.0.
 One-electron integrals computed using PRISM.
 NBasis=    75 RedAO= T EigKep=  3.76D-03  NBF=    75
 NBsUse=    75 1.00D-06 EigRej= -1.00D+00 NBFU=    75
 Leave Link  302 at Sat Mar  4 13:38:49 2017, MaxMem=   655360000 cpu:         0.8
 (Enter /mnt/software/gaussian/g09/l303.exe)
 DipDrv:  MaxL=1.
 Leave Link  303 at Sat Mar  4 13:38:49 2017, MaxMem=   655360000 cpu:         0.1
 (Enter /mnt/software/gaussian/g09/l401.exe)
 ExpMin= 1.69D-01 ExpMax= 7.00D+03 ExpMxC= 1.05D+03 IAcc=1 IRadAn=         1 AccDes= 0.00D+00
 Harris functional with IExCor=  205 and IRadAn=       1 diagonalized for initial guess.
 HarFok:  IExCor=  205 AccDes= 0.00D+00 IRadAn=         1 IDoV= 1 UseB2=F ITyADJ=14
 ICtDFT=  3500011 ScaDFX=  1.000000  1.000000  1.000000  1.000000
 FoFCou: FMM=F IPFlag=           0 FMFlag=      100000 FMFlg1=           0
         NFxFlg=           0 DoJE=T BraDBF=F KetDBF=T FulRan=T
         wScrn=  0.000000 ICntrl=     500 IOpCl=  0 I1Cent=   200000004 NGrid=           0
         NMat0=    1 NMatS0=      1 NMatT0=    0 NMatD0=    1 NMtDS0=    0 NMtDT0=    0
 Petite list used in FoFCou.
 Harris En= -435.025109965911    
 JPrj=0 DoOrth=F DoCkMO=F.
 Initial guess <Sx>= 0.0000 <Sy>= 0.0000 <Sz>= 0.5000 <S**2>= 0.7500 S= 0.5000
 Leave Link  401 at Sat Mar  4 13:38:49 2017, MaxMem=   655360000 cpu:         0.8
 (Enter /mnt/software/gaussian/g09/l502.exe)
 UHF open shell SCF:
 Using DIIS extrapolation, IDIIS=  1040.
 Integral symmetry usage will be decided dynamically.
 Keep R1 and R2 ints in memory in canonical form, NReq=8999569.
 IVT=       36430 IEndB=       36430 NGot=   655360000 MDV=   647198221
 LenX=   647198221 LenY=   647192155
 Requested convergence on RMS density matrix=1.00D-08 within 128 cycles.
 Requested convergence on MAX density matrix=1.00D-06.
 Requested convergence on             energy=1.00D-06.
 No special actions if energy rises.
 FoFCou: FMM=F IPFlag=           0 FMFlag=           0 FMFlg1=           0
         NFxFlg=           0 DoJE=F BraDBF=F KetDBF=F FulRan=T
         wScrn=  0.000000 ICntrl=     600 IOpCl=  0 I1Cent=           0 NGrid=           0
         NMat0=    1 NMatS0=   2850 NMatT0=    0 NMatD0=    1 NMtDS0=    0 NMtDT0=    0
 Symmetry not used in FoFCou.

 Cycle   1  Pass 1  IDiag  1:
 E= -435.047558198847    
 DIIS: error= 7.71D-02 at cycle   1 NSaved=   1.
 NSaved= 1 IEnMin= 1 EnMin= -435.047558198847     IErMin= 1 ErrMin= 7.71D-02
 ErrMax= 7.71D-02  0.00D+00 EMaxC= 1.00D-01 BMatC= 1.02D+00 BMatP= 1.02D+00
 IDIUse=3 WtCom= 2.29D-01 WtEn= 7.71D-01
 Coeff-Com:  0.100D+01
 Coeff-En:   0.100D+01
 Coeff:      0.100D+01
 Gap=     0.494 Goal=   None    Shift=    0.000
 Gap=     0.788 Goal=   None    Shift=    0.000
 GapD=    0.494 DampG=2.000 DampE=0.500 DampFc=1.0000 IDamp=-1.
 RMSDP=3.92D-03 MaxDP=6.39D-02              OVMax= 5.60D-02

 Cycle   2  Pass 1  IDiag  1:
 E= -435.118875049015     Delta-E=       -0.071316850169 Rises=F Damp=F
 DIIS: error= 1.32D-02 at cycle   2 NSaved=   2.
 NSaved= 2 IEnMin= 2 EnMin= -435.118875049015     IErMin= 2 ErrMin= 1.32D-02
 ErrMax= 1.32D-02  0.00D+00 EMaxC= 1.00D-01 BMatC= 6.68D-02 BMatP= 1.02D+00
 IDIUse=3 WtCom= 8.68D-01 WtEn= 1.32D-01
 Coeff-Com:  0.961D-01 0.904D+00
 Coeff-En:   0.000D+00 0.100D+01
 Coeff:      0.834D-01 0.917D+00
 Gap=     0.471 Goal=   None    Shift=    0.000
 Gap=     0.424 Goal=   None    Shift=    0.000
 RMSDP=1.47D-03 MaxDP=2.64D-02 DE=-7.13D-02 OVMax= 4.98D-02

 Cycle   3  Pass 1  IDiag  1:
 E= -435.128857423687     Delta-E=       -0.009982374671 Rises=F Damp=F
 DIIS: error= 7.13D-03 at cycle   3 NSaved=   3.
 NSaved= 3 IEnMin= 3 EnMin= -435.128857423687     IErMin= 3 ErrMin= 7.13D-03
 ErrMax= 7.13D-03  0.00D+00 EMaxC= 1.00D-01 BMatC= 2.07D-02 BMatP= 6.68D-02
 IDIUse=3 WtCom= 9.29D-01 WtEn= 7.13D-02
 Coeff-Com: -0.233D-01 0.335D+00 0.689D+00
 Coeff-En:   0.000D+00 0.000D+00 0.100D+01
 Coeff:     -0.216D-01 0.311D+00 0.711D+00
 Gap=     0.461 Goal=   None    Shift=    0.000
 Gap=     0.413 Goal=   None    Shift=    0.000
 RMSDP=4.78D-04 MaxDP=1.04D-02 DE=-9.98D-03 OVMax= 1.04D-02

 Cycle   4  Pass 1  IDiag  1:
 E= -435.132105954958     Delta-E=       -0.003248531272 Rises=F Damp=F
 DIIS: error= 1.24D-03 at cycle   4 NSaved=   4.
 NSaved= 4 IEnMin= 4 EnMin= -435.132105954958     IErMin= 4 ErrMin= 1.24D-03
 ErrMax= 1.24D-03  0.00D+00 EMaxC= 1.00D-01 BMatC= 3.97D-04 BMatP= 2.07D-02
 IDIUse=3 WtCom= 9.88D-01 WtEn= 1.24D-02
 Coeff-Com: -0.466D-02-0.584D-01-0.410D-01 0.110D+01
 Coeff-En:   0.000D+00 0.000D+00 0.000D+00 0.100D+01
 Coeff:     -0.460D-02-0.577D-01-0.405D-01 0.110D+01
 Gap=     0.462 Goal=   None    Shift=    0.000
 Gap=     0.412 Goal=   None    Shift=    0.000
 RMSDP=1.52D-04 MaxDP=2.27D-03 DE=-3.25D-03 OVMax= 4.83D-03

 Cycle   5  Pass 1  IDiag  1:
 E= -435.132282645273     Delta-E=       -0.000176690315 Rises=F Damp=F
 DIIS: error= 5.54D-04 at cycle   5 NSaved=   5.
 NSaved= 5 IEnMin= 5 EnMin= -435.132282645273     IErMin= 5 ErrMin= 5.54D-04
 ErrMax= 5.54D-04  0.00D+00 EMaxC= 1.00D-01 BMatC= 4.72D-05 BMatP= 3.97D-04
 IDIUse=3 WtCom= 9.94D-01 WtEn= 5.54D-03
 Coeff-Com:  0.376D-02-0.290D-01-0.745D-01-0.124D+00 0.122D+01
 Coeff-En:   0.000D+00 0.000D+00 0.000D+00 0.000D+00 0.100D+01
 Coeff:      0.374D-02-0.288D-01-0.741D-01-0.123D+00 0.122D+01
 Gap=     0.464 Goal=   None    Shift=    0.000
 Gap=     0.413 Goal=   None    Shift=    0.000
 RMSDP=6.54D-05 MaxDP=1.17D-03 DE=-1.77D-04 OVMax= 2.31D-03

 Cycle   6  Pass 1  IDiag  1:
 E= -435.132308673747     Delta-E=       -0.000026028473 Rises=F Damp=F
 DIIS: error= 1.34D-04 at cycle   6 NSaved=   6.
 NSaved= 6 IEnMin= 6 EnMin= -435.132308673747     IErMin= 6 ErrMin= 1.34D-04
 ErrMax= 1.34D-04  0.00D+00 EMaxC= 1.00D-01 BMatC= 2.68D-06 BMatP= 4.72D-05
 IDIUse=3 WtCom= 9.99D-01 WtEn= 1.34D-03
 Coeff-Com: -0.555D-04 0.494D-02 0.835D-02-0.470D-01-0.113D+00 0.115D+01
 Coeff-En:   0.000D+00 0.000D+00 0.000D+00 0.000D+00 0.000D+00 0.100D+01
 Coeff:     -0.554D-04 0.493D-02 0.834D-02-0.469D-01-0.113D+00 0.115D+01
 Gap=     0.464 Goal=   None    Shift=    0.000
 Gap=     0.413 Goal=   None    Shift=    0.000
 RMSDP=1.43D-05 MaxDP=2.52D-04 DE=-2.60D-05 OVMax= 4.32D-04

 Cycle   7  Pass 1  IDiag  1:
 E= -435.132309875981     Delta-E=       -0.000001202234 Rises=F Damp=F
 DIIS: error= 3.88D-05 at cycle   7 NSaved=   7.
 NSaved= 7 IEnMin= 7 EnMin= -435.132309875981     IErMin= 7 ErrMin= 3.88D-05
 ErrMax= 3.88D-05  0.00D+00 EMaxC= 1.00D-01 BMatC= 5.42D-07 BMatP= 2.68D-06
 IDIUse=1 WtCom= 1.00D+00 WtEn= 0.00D+00
 Coeff-Com: -0.444D-03 0.484D-02 0.109D-01 0.112D-02-0.173D+00 0.354D+00
 Coeff-Com:  0.803D+00
 Coeff:     -0.444D-03 0.484D-02 0.109D-01 0.112D-02-0.173D+00 0.354D+00
 Coeff:      0.803D+00
 Gap=     0.464 Goal=   None    Shift=    0.000
 Gap=     0.412 Goal=   None    Shift=    0.000
 RMSDP=3.94D-06 MaxDP=6.48D-05 DE=-1.20D-06 OVMax= 1.10D-04

 Cycle   8  Pass 1  IDiag  1:
 E= -435.132310008851     Delta-E=       -0.000000132871 Rises=F Damp=F
 DIIS: error= 1.29D-05 at cycle   8 NSaved=   8.
 NSaved= 8 IEnMin= 8 EnMin= -435.132310008851     IErMin= 8 ErrMin= 1.29D-05
 ErrMax= 1.29D-05  0.00D+00 EMaxC= 1.00D-01 BMatC= 2.68D-08 BMatP= 5.42D-07
 IDIUse=1 WtCom= 1.00D+00 WtEn= 0.00D+00
 Coeff-Com:  0.813D-04-0.120D-02-0.282D-02 0.385D-02 0.388D-01-0.148D+00
 Coeff-Com: -0.156D+00 0.126D+01
 Coeff:      0.813D-04-0.120D-02-0.282D-02 0.385D-02 0.388D-01-0.148D+00
 Coeff:     -0.156D+00 0.126D+01
 Gap=     0.464 Goal=   None    Shift=    0.000
 Gap=     0.412 Goal=   None    Shift=    0.000
 RMSDP=1.59D-06 MaxDP=3.10D-05 DE=-1.33D-07 OVMax= 4.75D-05

 Cycle   9  Pass 1  IDiag  1:
 E= -435.132310022990     Delta-E=       -0.000000014138 Rises=F Damp=F
 DIIS: error= 4.88D-06 at cycle   9 NSaved=   9.
 NSaved= 9 IEnMin= 9 EnMin= -435.132310022990     IErMin= 9 ErrMin= 4.88D-06
 ErrMax= 4.88D-06  0.00D+00 EMaxC= 1.00D-01 BMatC= 2.58D-09 BMatP= 2.68D-08
 IDIUse=1 WtCom= 1.00D+00 WtEn= 0.00D+00
 Coeff-Com:  0.458D-04-0.551D-03-0.127D-02 0.275D-03 0.196D-01-0.469D-01
 Coeff-Com: -0.944D-01 0.141D+00 0.982D+00
 Coeff:      0.458D-04-0.551D-03-0.127D-02 0.275D-03 0.196D-01-0.469D-01
 Coeff:     -0.944D-01 0.141D+00 0.982D+00
 Gap=     0.464 Goal=   None    Shift=    0.000
 Gap=     0.412 Goal=   None    Shift=    0.000
 RMSDP=4.53D-07 MaxDP=7.90D-06 DE=-1.41D-08 OVMax= 1.44D-05

 Cycle  10  Pass 1  IDiag  1:
 E= -435.132310024232     Delta-E=       -0.000000001242 Rises=F Damp=F
 DIIS: error= 1.05D-06 at cycle  10 NSaved=  10.
 NSaved=10 IEnMin=10 EnMin= -435.132310024232     IErMin=10 ErrMin= 1.05D-06
 ErrMax= 1.05D-06  0.00D+00 EMaxC= 1.00D-01 BMatC= 2.12D-10 BMatP= 2.58D-09
 IDIUse=1 WtCom= 1.00D+00 WtEn= 0.00D+00
 Coeff-Com: -0.148D-04 0.205D-03 0.479D-03-0.465D-03-0.688D-02 0.219D-01
 Coeff-Com:  0.277D-01-0.132D+00-0.200D+00 0.129D+01
 Coeff:     -0.148D-04 0.205D-03 0.479D-03-0.465D-03-0.688D-02 0.219D-01
 Coeff:      0.277D-01-0.132D+00-0.200D+00 0.129D+01
 Gap=     0.464 Goal=   None    Shift=    0.000
 Gap=     0.412 Goal=   None    Shift=    0.000
 RMSDP=1.83D-07 MaxDP=2.84D-06 DE=-1.24D-09 OVMax= 6.66D-06

 Cycle  11  Pass 1  IDiag  1:
 E= -435.132310024393     Delta-E=       -0.000000000161 Rises=F Damp=F
 DIIS: error= 2.78D-07 at cycle  11 NSaved=  11.
 NSaved=11 IEnMin=11 EnMin= -435.132310024393     IErMin=11 ErrMin= 2.78D-07
 ErrMax= 2.78D-07  0.00D+00 EMaxC= 1.00D-01 BMatC= 1.84D-11 BMatP= 2.12D-10
 IDIUse=1 WtCom= 1.00D+00 WtEn= 0.00D+00
 Coeff-Com:  0.764D-06-0.162D-04-0.377D-04 0.103D-03 0.420D-03-0.202D-02
 Coeff-Com: -0.221D-02 0.246D-01-0.147D-01-0.316D+00 0.131D+01
 Coeff:      0.764D-06-0.162D-04-0.377D-04 0.103D-03 0.420D-03-0.202D-02
 Coeff:     -0.221D-02 0.246D-01-0.147D-01-0.316D+00 0.131D+01
 Gap=     0.464 Goal=   None    Shift=    0.000
 Gap=     0.412 Goal=   None    Shift=    0.000
 RMSDP=5.48D-08 MaxDP=1.12D-06 DE=-1.61D-10 OVMax= 1.95D-06

 Cycle  12  Pass 1  IDiag  1:
 E= -435.132310024407     Delta-E=       -0.000000000014 Rises=F Damp=F
 DIIS: error= 1.57D-07 at cycle  12 NSaved=  12.
 NSaved=12 IEnMin=12 EnMin= -435.132310024407     IErMin=12 ErrMin= 1.57D-07
 ErrMax= 1.57D-07  0.00D+00 EMaxC= 1.00D-01 BMatC= 3.31D-12 BMatP= 1.84D-11
 IDIUse=1 WtCom= 1.00D+00 WtEn= 0.00D+00
 Coeff-Com:  0.178D-05-0.266D-04-0.600D-04 0.821D-04 0.831D-03-0.284D-02
 Coeff-Com: -0.369D-02 0.212D-01 0.167D-01-0.226D+00 0.346D+00 0.848D+00
 Coeff:      0.178D-05-0.266D-04-0.600D-04 0.821D-04 0.831D-03-0.284D-02
 Coeff:     -0.369D-02 0.212D-01 0.167D-01-0.226D+00 0.346D+00 0.848D+00
 Gap=     0.464 Goal=   None    Shift=    0.000
 Gap=     0.412 Goal=   None    Shift=    0.000
 RMSDP=1.47D-08 MaxDP=2.16D-07 DE=-1.42D-11 OVMax= 4.60D-07

 Cycle  13  Pass 1  IDiag  1:
 E= -435.132310024409     Delta-E=       -0.000000000002 Rises=F Damp=F
 DIIS: error= 1.57D-07 at cycle  13 NSaved=  13.
 NSaved=13 IEnMin=13 EnMin= -435.132310024409     IErMin=13 ErrMin= 1.57D-07
 ErrMax= 1.57D-07  0.00D+00 EMaxC= 1.00D-01 BMatC= 4.88D-13 BMatP= 3.31D-12
 IDIUse=1 WtCom= 1.00D+00 WtEn= 0.00D+00
 Coeff-Com: -0.117D-06 0.209D-05 0.628D-05-0.125D-04-0.718D-04 0.306D-03
 Coeff-Com:  0.307D-03-0.311D-02 0.116D-02 0.437D-01-0.177D+00 0.159D-02
 Coeff-Com:  0.113D+01
 Coeff:     -0.117D-06 0.209D-05 0.628D-05-0.125D-04-0.718D-04 0.306D-03
 Coeff:      0.307D-03-0.311D-02 0.116D-02 0.437D-01-0.177D+00 0.159D-02
 Coeff:      0.113D+01
 Gap=     0.464 Goal=   None    Shift=    0.000
 Gap=     0.412 Goal=   None    Shift=    0.000
 RMSDP=6.85D-09 MaxDP=2.12D-07 DE=-1.82D-12 OVMax= 5.30D-07

 SCF Done:  E(UHF) =  -435.132310024     A.U. after   13 cycles
            NFock= 13  Conv=0.68D-08     -V/T= 2.0032
 <Sx>= 0.0000 <Sy>= 0.0000 <Sz>= 0.5000 <S**2>= 0.7527 S= 0.5013
 <L.S>= 0.000000000000E+00
 KE= 4.337629948193D+02 PE=-1.305796212692D+03 EE= 2.975292003411D+02
 Annihilation of the first spin contaminant:
 S**2 before annihilation     0.7527,   after     0.7500
 Leave Link  502 at Sat Mar  4 13:38:50 2017, MaxMem=   655360000 cpu:         1.8
 (Enter /mnt/software/gaussian/g09/l801.exe)
 Range of M.O.s used for correlation:     1    75
 NBasis=    75 NAE=    21 NBE=    20 NFC=     0 NFV=     0
 NROrb=     75 NOA=    21 NOB=    20 NVA=    54 NVB=    55

 **** Warning!!: The largest alpha MO coefficient is  0.10310516D+02


 **** Warning!!: The largest beta MO coefficient is  0.10310516D+02

 Leave Link  801 at Sat Mar  4 13:38:50 2017, MaxMem=   655360000 cpu:         0.1
 (Enter /mnt/software/gaussian/g09/l1002.exe)
 Minotr:  UHF open shell wavefunction.
          Direct CPHF calculation.
          Differentiating once with respect to electric field.
                with respect to dipole field.
          Electric field/nuclear overlap derivatives assumed to be zero.
          Requested convergence is 1.0D-08 RMS, and 1.0D-07 maximum.
          Secondary convergence is 1.0D-12 RMS, and 1.0D-12 maximum.
          NewPWx=F KeepS1=T KeepF1=T KeepIn=T MapXYZ=F SortEE=F KeepMc=T.
          MDV=     655359806 using IRadAn=       2.
 Keep R1 and R2 ints in memory in canonical form, NReq=8971576.
 FoFCou: FMM=F IPFlag=           0 FMFlag=           0 FMFlg1=           0
         NFxFlg=           0 DoJE=F BraDBF=F KetDBF=F FulRan=T
         wScrn=  0.000000 ICntrl=     600 IOpCl=  0 I1Cent=           0 NGrid=           0
         NMat0=    1 NMatS0=   2850 NMatT0=    0 NMatD0=    1 NMtDS0=    0 NMtDT0=    0
 Symmetry not used in FoFCou.
          Solving linear equations simultaneously, MaxMat=       0.
          There are     3 degrees of freedom in the 1st order CPHF.  IDoFFX=0 NUNeed=     3.
      3 vectors produced by pass  0 Test12= 7.45D-14 3.33D-08 XBig12= 4.73D+00 7.53D-01.
 AX will form     3 AO Fock derivatives at one time.
      3 vectors produced by pass  1 Test12= 7.45D-14 3.33D-08 XBig12= 3.39D-01 9.82D-02.
      3 vectors produced by pass  2 Test12= 7.45D-14 3.33D-08 XBig12= 4.26D-02 6.37D-02.
      3 vectors produced by pass  3 Test12= 7.45D-14 3.33D-08 XBig12= 1.93D-03 1.60D-02.
      3 vectors produced by pass  4 Test12= 7.45D-14 3.33D-08 XBig12= 4.68D-05 2.25D-03.
      3 vectors produced by pass  5 Test12= 7.45D-14 3.33D-08 XBig12= 1.49D-06 3.23D-04.
      3 vectors produced by pass  6 Test12= 7.45D-14 3.33D-08 XBig12= 5.99D-08 7.54D-05.
      3 vectors produced by pass  7 Test12= 7.45D-14 3.33D-08 XBig12= 3.10D-09 4.44D-05.
      3 vectors produced by pass  8 Test12= 7.45D-14 3.33D-08 XBig12= 1.32D-10 2.68D-06.
      3 vectors produced by pass  9 Test12= 7.45D-14 3.33D-08 XBig12= 2.16D-12 4.52D-07.
      3 vectors produced by pass 10 Test12= 7.45D-14 3.33D-08 XBig12= 8.64D-14 2.14D-07.
      1 vectors produced by pass 11 Test12= 7.45D-14 3.33D-08 XBig12= 9.07D-15 4.47D-08.
 InvSVY:  IOpt=1 It=  1 EMax= 8.88D-16
 Solved reduced A of dimension    34 with     3 vectors.
 End of Minotr F.D. properties file   721 does not exist.
 End of Minotr F.D. properties file   722 does not exist.
 End of Minotr F.D. properties file   788 does not exist.
 Leave Link 1002 at Sat Mar  4 13:38:50 2017, MaxMem=   655360000 cpu:         2.7
 (Enter /mnt/software/gaussian/g09/l1101.exe)
 Using compressed storage, NAtomX=     5.
 Will process      6 centers per pass.
 Leave Link 1101 at Sat Mar  4 13:38:50 2017, MaxMem=   655360000 cpu:         0.8
 (Enter /mnt/software/gaussian/g09/l1102.exe)
 Symmetrizing basis deriv contribution to polar:
 IMax=3 JMax=2 DiffMx= 0.00D+00
 Leave Link 1102 at Sat Mar  4 13:38:50 2017, MaxMem=   655360000 cpu:         0.1
 (Enter /mnt/software/gaussian/g09/l1110.exe)
 Forming Gx(P) for the SCF density, NAtomX=     5.
 Integral derivatives from FoFJK, PRISM(SPDF).
 Do as many integral derivatives as possible in FoFJK.
 G2DrvN: MDV=     655359856.
 G2DrvN: will do     6 centers at a time, making    1 passes.
 PxScal for G2LodP:  IOpCl= 1 ISclPx=1 IMOff=     1 NMtTot=     4 NTT=    2850 ScalPx= 1.21D+00
 Calling FoFCou, ICntrl=  3107 FMM=F I1Cent=   0 AccDes= 0.00D+00.
 FoFJK:  IHMeth= 1 ICntrl=    3107 DoSepK=F KAlg= 0 I1Cent=   0 FoldK=F
 IRaf=         0 NMat=   1 IRICut=       1 DoRegI=T DoRafI=F ISym2E= 0.
 FoFCou: FMM=F IPFlag=           0 FMFlag=      100000 FMFlg1=           0
         NFxFlg=           0 DoJE=F BraDBF=F KetDBF=F FulRan=T
         wScrn=  0.000000 ICntrl=    3107 IOpCl=  1 I1Cent=           0 NGrid=           0
         NMat0=    1 NMatS0=      1 NMatT0=    0 NMatD0=    4 NMtDS0=    3 NMtDT0=    0
 Symmetry not used in FoFCou.
 End of G2Drv F.D. properties file   721 does not exist.
 End of G2Drv F.D. properties file   722 does not exist.
 End of G2Drv F.D. properties file   788 does not exist.
 Leave Link 1110 at Sat Mar  4 13:38:51 2017, MaxMem=   655360000 cpu:         1.8
 (Enter /mnt/software/gaussian/g09/l1002.exe)
 Minotr:  UHF open shell wavefunction.
          IDoAtm=11111
          Direct CPHF calculation.
          Differentiating once with respect to electric field.
                with respect to dipole field.
          Differentiating once with respect to nuclear coordinates.
          Requested convergence is 1.0D-08 RMS, and 1.0D-07 maximum.
          Secondary convergence is 1.0D-12 RMS, and 1.0D-12 maximum.
          NewPWx=T KeepS1=F KeepF1=F KeepIn=T MapXYZ=F SortEE=F KeepMc=T.
          MDV=     655359796 using IRadAn=       2.
 Keep R1 and R2 ints in memory in canonical form, NReq=8971691.
 FoFCou: FMM=F IPFlag=           0 FMFlag=           0 FMFlg1=           0
         NFxFlg=           0 DoJE=F BraDBF=F KetDBF=F FulRan=T
         wScrn=  0.000000 ICntrl=     600 IOpCl=  0 I1Cent=           0 NGrid=           0
         NMat0=    1 NMatS0=   2850 NMatT0=    0 NMatD0=    1 NMtDS0=    0 NMtDT0=    0
 Symmetry not used in FoFCou.
          Solving linear equations simultaneously, MaxMat=       0.
          There are    18 degrees of freedom in the 1st order CPHF.  IDoFFX=5 NUNeed=    18.
 Will reuse    3 saved solutions.
     12 vectors produced by pass  0 Test12= 1.24D-14 5.56D-09 XBig12= 1.99D-01 8.88D-02.
 AX will form    12 AO Fock derivatives at one time.
     12 vectors produced by pass  1 Test12= 1.24D-14 5.56D-09 XBig12= 1.76D-02 5.86D-02.
     12 vectors produced by pass  2 Test12= 1.24D-14 5.56D-09 XBig12= 2.36D-03 1.36D-02.
     12 vectors produced by pass  3 Test12= 1.24D-14 5.56D-09 XBig12= 6.19D-05 1.65D-03.
     11 vectors produced by pass  4 Test12= 1.24D-14 5.56D-09 XBig12= 8.73D-07 1.79D-04.
      9 vectors produced by pass  5 Test12= 1.24D-14 5.56D-09 XBig12= 1.32D-08 2.92D-05.
      9 vectors produced by pass  6 Test12= 1.24D-14 5.56D-09 XBig12= 3.50D-10 1.04D-05.
      7 vectors produced by pass  7 Test12= 1.24D-14 5.56D-09 XBig12= 4.27D-12 3.01D-07.
      3 vectors produced by pass  8 Test12= 1.24D-14 5.56D-09 XBig12= 2.49D-14 3.12D-08.
 InvSVY:  IOpt=1 It=  1 EMax= 1.70D-14
 Solved reduced A of dimension    87 with    12 vectors.
 FullF1:  Do perturbations    1 to     3.
 Isotropic polarizability for W=    0.000000       11.93 Bohr**3.
 FullF1:  Do perturbations    1 to     6.
 End of Minotr F.D. properties file   721 does not exist.
 End of Minotr F.D. properties file   722 does not exist.
 End of Minotr F.D. properties file   788 does not exist.
 Leave Link 1002 at Sat Mar  4 13:38:51 2017, MaxMem=   655360000 cpu:         4.2
 (Enter /mnt/software/gaussian/g09/l601.exe)
 Copying SCF densities to generalized density rwf, IOpCl= 1 IROHF=0.

 **********************************************************************

            Population analysis using the SCF density.

 **********************************************************************

 Orbital symmetries:
 Alpha Orbitals:
       Occupied  (A) (A) (A) (A) (A) (A) (A) (A) (A) (A) (A) (A)
                 (A) (A) (A) (A) (A) (A) (A) (A) (A)
       Virtual   (A) (A) (A) (A) (A) (A) (A) (A) (A) (A) (A) (A)
                 (A) (A) (A) (A) (A) (A) (A) (A) (A) (A) (A) (A)
                 (A) (A) (A) (A) (A) (A) (A) (A) (A) (A) (A) (A)
                 (A) (A) (A) (A) (A) (A) (A) (A) (A) (A) (A) (A)
                 (A) (A) (A) (A) (A) (A)
 Beta  Orbitals:
       Occupied  (A) (A) (A) (A) (A) (A) (A) (A) (A) (A) (A) (A)
                 (A) (A) (A) (A) (A) (A) (A) (A)
       Virtual   (A) (A) (A) (A) (A) (A) (A) (A) (A) (A) (A) (A)
                 (A) (A) (A) (A) (A) (A) (A) (A) (A) (A) (A) (A)
                 (A) (A) (A) (A) (A) (A) (A) (A) (A) (A) (A) (A)
                 (A) (A) (A) (A) (A) (A) (A) (A) (A) (A) (A) (A)
                 (A) (A) (A) (A) (A) (A) (A)
 The electronic state is 2-A.
 Alpha  occ. eigenvalues --  -26.77011 -26.74103 -26.73242 -26.43872 -11.97179
 Alpha  occ. eigenvalues --   -2.15429  -2.05635  -2.01701  -1.69253  -1.32458
 Alpha  occ. eigenvalues --   -1.22639  -1.21912  -1.17182  -1.06529  -1.06000
 Alpha  occ. eigenvalues --   -1.04346  -1.02452  -1.01331  -0.86077  -0.75289
 Alpha  occ. eigenvalues --   -0.75285
 Alpha virt. eigenvalues --   -0.28883   0.05632   0.11417   0.14998   0.33447
 Alpha virt. eigenvalues --    0.35935   0.38568   0.41394   0.99282   1.01941
 Alpha virt. eigenvalues --    1.03035   1.03331   1.06990   1.07854   1.27301
 Alpha virt. eigenvalues --    1.28145   1.28887   1.29894   1.31399   1.32443
 Alpha virt. eigenvalues --    1.32740   1.39574   1.39582   1.41884   1.62819
 Alpha virt. eigenvalues --    1.64401   1.72820   1.75089   1.77505   1.82077
 Alpha virt. eigenvalues --    1.84011   1.86195   1.91618   1.96398   1.97128
 Alpha virt. eigenvalues --    2.00287   2.02012   2.02017   2.04420   2.07429
 Alpha virt. eigenvalues --    2.07429   2.41875   2.47637   2.56409   2.82334
 Alpha virt. eigenvalues --    2.86489   3.08454   3.13059   3.15427   3.66092
 Alpha virt. eigenvalues --    4.19763   4.40605   4.49159   4.64704
  Beta  occ. eigenvalues --  -26.77011 -26.74103 -26.73242 -26.39097 -11.97179
  Beta  occ. eigenvalues --   -2.15429  -2.05635  -2.01701  -1.50062  -1.32458
  Beta  occ. eigenvalues --   -1.22639  -1.21912  -1.17182  -1.06529  -1.06000
  Beta  occ. eigenvalues --   -1.04346  -1.02452  -1.01331  -0.70124  -0.70121
  Beta virt. eigenvalues --   -0.28883   0.05607   0.05632   0.11417   0.14998
  Beta virt. eigenvalues --    0.33447   0.35935   0.38568   0.41394   0.99282
  Beta virt. eigenvalues --    1.01941   1.03331   1.06265   1.06990   1.07854
  Beta virt. eigenvalues --    1.27301   1.28145   1.28887   1.29894   1.31399
  Beta virt. eigenvalues --    1.32443   1.41884   1.42099   1.42108   1.55090
  Beta virt. eigenvalues --    1.62819   1.64401   1.72820   1.75089   1.77505
  Beta virt. eigenvalues --    1.82077   1.84011   1.86195   1.91618   1.96398
  Beta virt. eigenvalues --    1.97128   2.04420   2.08102   2.08102   2.10893
  Beta virt. eigenvalues --    2.10898   2.11997   2.41875   2.47637   2.56409
  Beta virt. eigenvalues --    2.82334   2.86489   3.08454   3.13059   3.15427
  Beta virt. eigenvalues --    3.70391   4.19763   4.40605   4.49159   4.64704
          Condensed to atoms (all electrons):
               1          2          3          4          5
     1  C    3.514668   0.373865   0.388692   0.000000   0.416472
     2  F    0.373865   8.830773  -0.037235   0.000000  -0.028586
     3  F    0.388692  -0.037235   8.793574   0.000000  -0.033255
     4  F    0.000000   0.000000   0.000000   9.000000   0.000000
     5  F    0.416472  -0.028586  -0.033255   0.000000   8.701075
          Atomic-Atomic Spin Densities.
               1          2          3          4          5
     1  C    0.000000   0.000000   0.000000   0.000000   0.000000
     2  F    0.000000   0.000000   0.000000   0.000000   0.000000
     3  F    0.000000   0.000000   0.000000   0.000000   0.000000
     4  F    0.000000   0.000000   0.000000   1.000000   0.000000
     5  F    0.000000   0.000000   0.000000   0.000000   0.000000
 Mulliken charges and spin densities:
               1          2
     1  C    1.306302   0.000000
     2  F   -0.138818   0.000000
     3  F   -0.111777   0.000000
     4  F    0.000000   1.000000
     5  F   -0.055707   0.000000
 Sum of Mulliken charges =   1.00000   1.00000
 Mulliken charges and spin densities with hydrogens summed into heavy atoms:
               1          2
     1  C    1.306302   0.000000
     2  F   -0.138818   0.000000
     3  F   -0.111777   0.000000
     4  F    0.000000   1.000000
     5  F   -0.055707   0.000000
 APT charges:
               1
     1  C    1.992837
     2  F   -0.316670
     3  F   -0.334538
     4  F    0.000001
     5  F   -0.341630
 Sum of APT charges =   1.00000
 APT charges with hydrogens summed into heavy atoms:
               1
     1  C    1.992837
     2  F   -0.316670
     3  F   -0.334538
     4  F    0.000001
     5  F   -0.341630
 Electronic spatial extent (au):  <R**2>=           5173.1390
 Charge=              1.0000 electrons
 Dipole moment (field-independent basis, Debye):
    X=            -14.3596    Y=              0.4946    Z=             -1.2887  Tot=             14.4258
 Quadrupole moment (field-independent basis, Debye-Ang):
   XX=             21.7083   YY=            -20.3649   ZZ=            -20.2098
   XY=             -1.4888   XZ=              3.7057   YZ=              0.2686
 Traceless Quadrupole moment (field-independent basis, Debye-Ang):
   XX=             27.9971   YY=            -14.0761   ZZ=            -13.9210
   XY=             -1.4888   XZ=              3.7057   YZ=              0.2686
 Octapole moment (field-independent basis, Debye-Ang**2):
  XXX=           -132.0447  YYY=              1.2881  ZZZ=             -0.1778  XYY=              4.1510
  XXY=              3.5523  XXZ=            -10.1875  XZZ=             -2.4310  YZZ=              0.1116
  YYZ=              0.5546  XYZ=              4.0053
 Hexadecapole moment (field-independent basis, Debye-Ang**3):
 XXXX=          -4020.3270 YYYY=            -68.1534 ZZZZ=            -13.7157 XXXY=             -9.1995
 XXXZ=             25.1745 YYYX=             -3.9627 YYYZ=              0.5831 ZZZX=              0.5855
 ZZZY=              0.0790 XXYY=           -664.5990 XXZZ=           -711.2991 YYZZ=            -14.1283
 XXYZ=             43.4639 YYXZ=             -1.6968 ZZXY=             -0.7993
 N-N= 1.393717075073D+02 E-N=-1.305796212738D+03  KE= 4.337629948193D+02
  Exact polarizability:  13.113  -0.168  13.427   0.809  -0.041   9.242
 Approx polarizability:  12.179  -0.153  12.587   0.630  -0.090   9.230
                          Isotropic Fermi Contact Couplings
        Atom                 a.u.       MegaHertz       Gauss      10(-4) cm-1
     1  C(13)              0.00000       0.00000       0.00000       0.00000
     2  F(19)              0.00000       0.00000       0.00000       0.00000
     3  F(19)              0.00000       0.00000       0.00000       0.00000
     4  F(19)              0.06931     291.62646     104.05957      97.27612
     5  F(19)              0.00000       0.00000       0.00000       0.00000
 --------------------------------------------------------
       Center         ----  Spin Dipole Couplings  ----
                      3XX-RR        3YY-RR        3ZZ-RR
 --------------------------------------------------------
     1   Atom        0.000106     -0.000053     -0.000053
     2   Atom        0.000133     -0.000067     -0.000067
     3   Atom        0.000085     -0.000043     -0.000043
     4   Atom       -2.910924      3.871544     -0.960621
     5   Atom        0.000101     -0.000050     -0.000051
 --------------------------------------------------------
                        XY            XZ            YZ
 --------------------------------------------------------
     1   Atom        0.000000      0.000002      0.000000
     2   Atom        0.000009     -0.000004      0.000000
     3   Atom        0.000006      0.000001      0.000000
     4   Atom       -0.071481     -0.038336      3.637944
     5   Atom       -0.000013     -0.000001      0.000000
 --------------------------------------------------------


 ---------------------------------------------------------------------------------
              Anisotropic Spin Dipole Couplings in Principal Axis System
 ---------------------------------------------------------------------------------

       Atom             a.u.   MegaHertz   Gauss  10(-4) cm-1        Axes

              Baa    -0.0001    -0.007    -0.003    -0.002 -0.0119 -0.4727  0.8811
     1 C(13)  Bbb    -0.0001    -0.007    -0.003    -0.002 -0.0035  0.8812  0.4727
              Bcc     0.0001     0.014     0.005     0.005  0.9999 -0.0025  0.0121
 
              Baa    -0.0001    -0.034    -0.012    -0.011  0.0402 -0.4719  0.8807
     2 F(19)  Bbb    -0.0001    -0.034    -0.012    -0.011 -0.0286  0.8805  0.4731
              Bcc     0.0001     0.067     0.024     0.022  0.9988  0.0442 -0.0219
 
              Baa     0.0000    -0.022    -0.008    -0.007  0.0151 -0.4725  0.8812
     3 F(19)  Bbb     0.0000    -0.022    -0.008    -0.007 -0.0434  0.8802  0.4726
              Bcc     0.0001     0.043     0.015     0.014  0.9989  0.0454  0.0073
 
              Baa    -2.9117 -1462.329  -521.795  -487.781 -0.0183 -0.4727  0.8810
     4 F(19)  Bbb    -2.9117 -1462.319  -521.792  -487.777  0.9998 -0.0004  0.0205
              Bcc     5.8234  2924.648  1043.587   975.558 -0.0093  0.8812  0.4726
 
              Baa    -0.0001    -0.026    -0.009    -0.009 -0.0360 -0.4726  0.8805
     5 F(19)  Bbb    -0.0001    -0.026    -0.009    -0.009  0.0776  0.8771  0.4740
              Bcc     0.0001     0.051     0.018     0.017  0.9963 -0.0854 -0.0051
 

 ---------------------------------------------------------------------------------

 No NMR shielding tensors so no spin-rotation constants.
 Leave Link  601 at Sat Mar  4 13:38:52 2017, MaxMem=   655360000 cpu:         1.3
 (Enter /mnt/software/gaussian/g09/l701.exe)
 Compute integral second derivatives.
 ... and contract with generalized density number  0.
 Entering OneElI...
 Calculate overlap and kinetic energy integrals
    NBasis =  75  MinDer = 2  MaxDer = 2
 Requested accuracy = 0.1000D-12
 PrsmSu:  NPrtUS=   6 ThrOK=T IAlg=1 NPAlg=1 LenDen=           0.
 Prism:   IPart=     0 DynPar=F LinDyn=F Incr=           1.
 PRISM was handed   109212905 working-precision words and   146 shell-pairs
 PRISM was handed   109212905 working-precision words and   146 shell-pairs
 PRISM was handed   109212905 working-precision words and   146 shell-pairs
 PRISM was handed   109212905 working-precision words and   146 shell-pairs
 PRISM was handed   109212905 working-precision words and   146 shell-pairs
 PRISM was handed   109212905 working-precision words and   146 shell-pairs
 IPart=  1 NShTot=          29 NBatch=          15 AvBLen=         1.9
 IPart=  2 NShTot=          27 NBatch=          15 AvBLen=         1.8
 IPart=  4 NShTot=          23 NBatch=          11 AvBLen=         2.1
 IPart=  5 NShTot=          15 NBatch=          10 AvBLen=         1.5
 IPart=  0 NShTot=          29 NBatch=          15 AvBLen=         1.9
 IPart=  3 NShTot=          23 NBatch=          11 AvBLen=         2.1
 PrSmSu:  NxtVal=              7.
 Entering OneElI...
 Calculate potential energy integrals
    NBasis =  75  MinDer = 2  MaxDer = 2
 Requested accuracy = 0.1000D-12
 PrsmSu:  NPrtUS=   6 ThrOK=T IAlg=1 NPAlg=1 LenDen=           0.
 Prism:   IPart=     0 DynPar=F LinDyn=F Incr=           1.
 PRISM was handed   109214689 working-precision words and   143 shell-pairs
 PRISM was handed   109214689 working-precision words and   143 shell-pairs
 PRISM was handed   109214689 working-precision words and   143 shell-pairs
 PRISM was handed   109214689 working-precision words and   143 shell-pairs
 PRISM was handed   109214689 working-precision words and   143 shell-pairs
 PRISM was handed   109214689 working-precision words and   143 shell-pairs
 IPart=  0 NShTot=         145 NBatch=          29 AvBLen=         5.0
 IPart=  5 NShTot=          70 NBatch=          14 AvBLen=         5.0
 IPart=  1 NShTot=         135 NBatch=          27 AvBLen=         5.0
 IPart=  2 NShTot=         125 NBatch=          25 AvBLen=         5.0
 IPart=  3 NShTot=         120 NBatch=          24 AvBLen=         5.0
 IPart=  4 NShTot=         120 NBatch=          24 AvBLen=         5.0
 PrSmSu:  NxtVal=              7.
 Polarizability after L701:
                1             2             3 
      1  0.131132D+02
      2 -0.168262D+00  0.134270D+02
      3  0.809452D+00 -0.414054D-01  0.924178D+01
 Dipole Derivatives after L701:
                 1             2             3             4             5 
      1   0.228094D+01  0.721599D-02  0.174860D+00 -0.514069D+00  0.172934D+00
      2   0.802930D-03  0.241630D+01  0.493386D-01  0.141790D+00 -0.300815D+00
      3   0.185614D+00  0.301790D-01  0.128127D+01 -0.618015D-01  0.219090D-01
                 6             7             8             9            10 
      1  -0.199658D+00 -0.551574D+00 -0.209953D+00  0.410141D-01 -0.171639D-03
      2   0.815289D-01 -0.225640D+00 -0.368622D+00  0.356561D-01  0.208791D-05
      3  -0.135126D+00 -0.945569D-01 -0.459466D-01 -0.834188D-01 -0.466056D-05
                11            12            13            14            15 
      1   0.134543D-05 -0.428774D-05 -0.215129D+00  0.298014D-01 -0.162117D-01
      2   0.892913D-04  0.242013D-05  0.830446D-01 -0.746951D+00 -0.166526D+00
      3   0.147275D-05  0.850916D-04 -0.292505D-01 -0.614289D-02 -0.628083D-01
 Hessian after L701:
                1             2             3             4             5 
      1  0.167108D+02
      2  0.306164D+00  0.132309D+02
      3 -0.308523D+01 -0.312802D+00  0.339358D+02
      4 -0.182230D+01 -0.547069D+01  0.469790D+01  0.152577D+00
      5 -0.536890D+01 -0.761861D+01 -0.274794D+01  0.660701D+01  0.746349D+01
      6  0.427483D+01 -0.254398D+01 -0.896986D+01 -0.504560D+01  0.281024D+01
      7 -0.176983D+01  0.696133D+01 -0.122054D+01  0.167004D+01 -0.882916D-01
      8  0.698082D+01 -0.691722D+01 -0.878583D+00  0.322257D+00 -0.900824D+00
      9 -0.825543D+00 -0.603789D+00 -0.120371D+02  0.329619D+00  0.423083D-01
     10  0.430453D-02 -0.185694D-03  0.446754D-02  0.673842D-02  0.347516D-02
     11  0.185309D-04 -0.271706D-02 -0.149019D-04  0.641270D-03 -0.540875D-02
     12 -0.134289D-04 -0.459083D-05 -0.216203D-02 -0.359054D-03 -0.841133D-05
     13 -0.131230D+02 -0.179662D+01 -0.396604D+00 -0.706491D-02 -0.115330D+01
     14 -0.191811D+01  0.130765D+01  0.393934D+01 -0.145923D+01  0.106135D+01
     15 -0.364046D+00  0.346058D+01 -0.129266D+02  0.184359D-01 -0.104607D+00
                6             7             8             9            10 
      6  0.105732D+02
      7  0.594397D+00  0.499171D+00
      8  0.133040D+00 -0.821849D+01  0.639016D+01
      9 -0.739716D+00  0.407114D+00  0.446227D+00  0.136050D+02
     10 -0.262277D-02  0.107743D-01  0.322740D-02 -0.551803D-03 -0.308185D-01
     11 -0.546999D-04  0.564398D-03 -0.341344D-02 -0.777585D-05 -0.119979D-03
     12 -0.554459D-02  0.155212D-03  0.499533D-04 -0.355300D-02  0.265430D-03
     13  0.178997D+00 -0.410155D+00  0.912182D+00  0.893620D-01  0.900125D-02
     14 -0.399243D+00  0.134488D+01  0.143129D+01  0.115262D+00 -0.639689D-02
     15 -0.858097D+00  0.218875D+00  0.299267D+00 -0.824566D+00 -0.155840D-02
               11            12            13            14            15 
     11  0.153423D-01
     12  0.868858D-05  0.154761D-01
     13 -0.110422D-02 -0.481590D-04  0.135312D+02
     14 -0.380307D-02 -0.456397D-04  0.203885D+01 -0.379649D+01
     15  0.686891D-04 -0.421652D-02  0.128293D+00 -0.365531D+01  0.146135D+02
 Leave Link  701 at Sat Mar  4 13:38:52 2017, MaxMem=   655360000 cpu:         1.0
 (Enter /mnt/software/gaussian/g09/l702.exe)
 L702 exits ... SP integral derivatives will be done elsewhere.
 Leave Link  702 at Sat Mar  4 13:38:52 2017, MaxMem=   655360000 cpu:         0.1
 (Enter /mnt/software/gaussian/g09/l703.exe)
 Compute integral second derivatives, UseDBF=F ICtDFT=           0.
 Integral derivatives from FoFJK, PRISM(SPDF).
 ICntrl=    100127.
 Calling FoFJK, ICntrl=    100127 FMM=F ISym2X=0 I1Cent= 0 IOpClX= 1 NMat=1 NMatS=1 NMatT=0.
 FoFJK:  IHMeth= 1 ICntrl=  100127 DoSepK=F KAlg= 0 I1Cent=   0 FoldK=F
 IRaf=         0 NMat=   1 IRICut=       1 DoRegI=T DoRafI=F ISym2E= 0.
 FoFCou: FMM=F IPFlag=           0 FMFlag=      100000 FMFlg1=         800
         NFxFlg=           0 DoJE=F BraDBF=F KetDBF=F FulRan=T
         wScrn=  0.000000 ICntrl=  100127 IOpCl=  1 I1Cent=           0 NGrid=           0
         NMat0=    1 NMatS0=      1 NMatT0=    0 NMatD0=    1 NMtDS0=    0 NMtDT0=    0
 Symmetry not used in FoFCou.
 FoFCou:  KetSym=F NOpSet=  1 NOpAb=1 NOp=  1.
 FoFCou:  CnvScl= 1.00D+00 Thresh= 1.00D-10 IAcrcy=      10.
 PrismS was handed   655323746 working-precision words and   143 shell-pairs
 FoFCou: LinMIO=F DoNuc=F BraDBF=F KetDBF=F HaveP=T PDBF=F HaveZ=T HaveW=F
         NIJTC =       6 NIJTAt=       0 NIJTCD=       0 NIJTT =       6
         IJTBeg=       1 IJTEnd=       6 KLTBeg=       1 KLTEnd=       6
         IPTBeg=       1 IPTEnd=       6 IPTBCv=       1 IPTECv=       6
         IZTBeg=       1 IZTEnd=       6 IZTBCv=       1 IZTECv=       6
         IWTBeg=       7 IWTEnd=       6 IWTBCv=       7 IWTECv=       6
         INTBeg=       1 INTEnd=       0 IFTBCv=       1 IFTECv=       6
 NCel replicated for PrismC:     1
 CoulSu:  IncDef=  1024 NBBP=          10296 NTPThr=   100 NPartT=    6 Incr=          17 LDynOK=F.
 CoulSu:  NPrtUS=   6 ThrOK=T IAlg=1 NPAlg=1 LenDen=           0 LWGrdD=           0 DoCopy=F.
 Enter PrismC: JobTyp=22 DoJE=F Cont=F.
 PrismC:  IPart=     0 DynPar=F LinDyn=F Incr=          17 UseFst=F UseS4=T IGathr=2.
 PrismC was handed   109213369 working-precision words and   143 shell-pairs
 Enter PrismC: JobTyp=22 DoJE=F Cont=F.
 PrismC was handed   109213369 working-precision words and   143 shell-pairs
 Enter PrismC: JobTyp=22 DoJE=F Cont=F.
 Enter PrismC: JobTyp=22 DoJE=F Cont=F.
 Enter PrismC: JobTyp=22 DoJE=F Cont=F.
 PrismC was handed   109213369 working-precision words and   143 shell-pairs
 Enter PrismC: JobTyp=22 DoJE=F Cont=F.
 PrismC was handed   109213369 working-precision words and   143 shell-pairs
 PrismC was handed   109213369 working-precision words and   143 shell-pairs
 PrismC was handed   109213369 working-precision words and   143 shell-pairs
 IPart=  2 NShTot=        1660 NShNF=        1660 NShFF=           0 NBatch=         178 AvBLen=         9.3
 IPart=  1 NShTot=        1663 NShNF=        1663 NShFF=           0 NBatch=         177 AvBLen=         9.4
 IPart=  3 NShTot=        1662 NShNF=        1662 NShFF=           0 NBatch=         175 AvBLen=         9.5
 IPart=  4 NShTot=        1660 NShNF=        1660 NShFF=           0 NBatch=         176 AvBLen=         9.4
 IPart=  5 NShTot=        1629 NShNF=        1629 NShFF=           0 NBatch=         170 AvBLen=         9.6
 IPart=  0 NShTot=        1775 NShNF=        1775 NShFF=           0 NBatch=         184 AvBLen=         9.6
 CoulSu:  NxtVal=            103.
 Polarizability after L703:
                1             2             3 
      1  0.131132D+02
      2 -0.168262D+00  0.134270D+02
      3  0.809452D+00 -0.414054D-01  0.924178D+01
 Dipole Derivatives after L703:
                 1             2             3             4             5 
      1   0.228094D+01  0.721599D-02  0.174860D+00 -0.514069D+00  0.172934D+00
      2   0.802930D-03  0.241630D+01  0.493386D-01  0.141790D+00 -0.300815D+00
      3   0.185614D+00  0.301790D-01  0.128127D+01 -0.618015D-01  0.219090D-01
                 6             7             8             9            10 
      1  -0.199658D+00 -0.551574D+00 -0.209953D+00  0.410141D-01 -0.171639D-03
      2   0.815289D-01 -0.225640D+00 -0.368622D+00  0.356561D-01  0.208791D-05
      3  -0.135126D+00 -0.945569D-01 -0.459466D-01 -0.834188D-01 -0.466056D-05
                11            12            13            14            15 
      1   0.134543D-05 -0.428774D-05 -0.215129D+00  0.298014D-01 -0.162117D-01
      2   0.892913D-04  0.242013D-05  0.830446D-01 -0.746951D+00 -0.166526D+00
      3   0.147275D-05  0.850916D-04 -0.292505D-01 -0.614289D-02 -0.628083D-01
 Hessian after L703:
                1             2             3             4             5 
      1  0.730993D+00
      2  0.103576D-01  0.101172D+01
      3  0.504466D-01  0.706408D-01  0.333211D+00
      4 -0.273235D+00  0.781080D-01 -0.465393D-01  0.368878D+00
      5  0.839141D-01 -0.167043D+00  0.233986D-01 -0.125187D+00  0.191943D+00
      6 -0.728842D-01  0.340185D-01 -0.129299D+00  0.887864D-01 -0.392480D-01
      7 -0.342637D+00 -0.150451D+00 -0.921260D-02 -0.918352D-01 -0.157501D-01
      8 -0.150338D+00 -0.219544D+00 -0.442160D-02  0.156022D-02  0.262379D-01
      9  0.148258D-01  0.924966D-02 -0.101089D+00 -0.308053D-01  0.497259D-03
     10  0.000000D+00  0.000000D+00  0.000000D+00  0.000000D+00  0.000000D+00
     11  0.000000D+00  0.000000D+00  0.000000D+00  0.000000D+00  0.000000D+00
     12  0.000000D+00  0.000000D+00  0.000000D+00  0.000000D+00  0.000000D+00
     13 -0.115121D+00  0.619855D-01  0.530529D-02 -0.380728D-02  0.570229D-01
     14  0.560667D-01 -0.625134D+00 -0.896177D-01  0.455188D-01 -0.511377D-01
     15  0.761182D-02 -0.113909D+00 -0.102823D+00 -0.114417D-01  0.153522D-01
                6             7             8             9            10 
      6  0.858679D-01
      7 -0.143814D-01  0.426966D+00
      8  0.422740D-02  0.207653D+00  0.271045D+00
      9  0.213908D-01  0.218633D-01  0.639833D-02  0.533351D-01
     10  0.000000D+00  0.000000D+00  0.000000D+00  0.000000D+00  0.000000D+00
     11  0.000000D+00  0.000000D+00  0.000000D+00  0.000000D+00  0.000000D+00
     12  0.000000D+00  0.000000D+00  0.000000D+00  0.000000D+00  0.000000D+00
     13 -0.152072D-02  0.750620D-02 -0.588750D-01 -0.588382D-02  0.000000D+00
     14  0.100217D-02 -0.414522D-01 -0.777389D-01 -0.161453D-01  0.000000D+00
     15  0.220400D-01  0.173064D-02 -0.620413D-02  0.263632D-01  0.000000D+00
               11            12            13            14            15 
     11  0.000000D+00
     12  0.000000D+00  0.000000D+00
     13  0.000000D+00  0.000000D+00  0.111423D+00
     14  0.000000D+00  0.000000D+00 -0.601334D-01  0.754011D+00
     15  0.000000D+00  0.000000D+00  0.209926D-02  0.104761D+00  0.544196D-01
 Leave Link  703 at Sat Mar  4 13:38:52 2017, MaxMem=   655360000 cpu:         3.9
 (Enter /mnt/software/gaussian/g09/l716.exe)
 FrcOut:
 IF    =    42 IFX   =    57 IFXYZ =    72
 IFFX  =    87 IFFFX =   207 IFLen =    15
 IFFLen=   120 IFFFLn=     0 IEDerv=   207
 LEDerv=   773 IFroze=  1169 ICStrt= 12633
 Dipole        =-5.64949044D+00 1.94600086D-01-5.06997812D-01
 DipoleDeriv   = 2.28094407D+00 8.02930360D-04 1.85613612D-01
                 7.21598779D-03 2.41629922D+00 3.01790366D-02
                 1.74859648D-01 4.93385743D-02 1.28126772D+00
                -5.14068819D-01 1.41790198D-01-6.18015384D-02
                 1.72934030D-01-3.00815274D-01 2.19089896D-02
                -1.99657768D-01 8.15289095D-02-1.35125782D-01
                -5.51574309D-01-2.25639824D-01-9.45569320D-02
                -2.09952747D-01-3.68622204D-01-4.59466119D-02
                 4.10141248D-02 3.56560577D-02-8.34187832D-02
                -1.71638737D-04 2.08791052D-06-4.66056416D-06
                 1.34542568D-06 8.92912570D-05 1.47275499D-06
                -4.28774239D-06 2.42012844D-06 8.50916011D-05
                -2.15129301D-01 8.30446082D-02-2.92504806D-02
                 2.98013837D-02-7.46951036D-01-6.14288695D-03
                -1.62117166D-02-1.66525962D-01-6.28082506D-02
 Polarizability= 1.31131794D+01-1.68261647D-01 1.34269965D+01
                 8.09451794D-01-4.14053679D-02 9.24178331D+00
 PolarDeriv    = 5.63398402D-01 8.23827091D-01 3.26556379D-01
                -1.56286677D+00 1.39277058D-01 2.34045807D-02
                 7.08876815D-01 2.70924393D-01 2.25302032D-01
                 1.74749067D-01-1.49968908D+00 5.16624185D-02
                -1.62621706D+00 1.54486025D-01-1.48982971D+00
                -1.35290276D-01 3.53073890D-01-3.12071034D+00
                 4.63497262D+00-1.24034344D+00 1.15323906D+00
                 1.27155262D+00-3.13448393D-01 6.73398676D-01
                -8.77914833D-01 1.80620442D+00-2.52447036D+00
                -3.38220339D-01 7.57889927D-01-4.40110535D-01
                 1.00260398D+00-1.69248978D-01 6.76869438D-01
                 1.42831591D+00-8.39796876D-01 1.64568554D+00
                -4.63826037D+00-1.34984724D+00-1.20362371D+00
                 6.29409666D-02 1.13002274D-01-5.34578835D-01
                -1.08054808D+00-1.73737732D+00-2.91477840D+00
                 1.17541402D-01 9.32941271D-02-3.29895055D-01
                 1.47754057D-01-4.37295158D-02 2.39470391D-01
                -1.14426501D+00-8.21311957D-01 4.83965425D-01
                -4.50778051D-04-1.82376225D-05 1.90655367D-04
                -2.07553887D-05-2.43374827D-05 1.42879813D-04
                 2.26486711D-06-1.19573757D-03-5.63846430D-06
                -7.63795014D-04-2.92746328D-05-4.34046937D-05
                 4.23269141D-05-7.64155560D-04 5.47748756D-06
                -2.17867219D-04-2.76129843D-05-4.47944640D-06
                -5.59659876D-01 1.76638182D+00-2.76362380D-01
                 2.28393931D-01 6.11933991D-02-1.62367302D-01
                 1.24958384D+00-3.38555762D-01 5.21395237D+00
                 4.66936648D-02 6.48534303D-01 7.18386576D-01
                 4.75816689D-01 5.92566243D-02 5.73484407D-01
                -1.48542756D-01 1.30806256D+00 9.91063853D-01
 HyperPolar    = 2.53068233D+00 7.23292755D+00 1.41938985D+00
                -5.31758201D+00-6.73778376D+00 7.74340497D-01
                -6.66438667D+00-2.11003166D+00 9.43657277D-01
                -6.44093447D+00
 VibFq2-Diag1:  N=     15 IV=           6 MDV=   655346161 NE2=    43689743
 Full mass-weighted force constant matrix:
 Low frequencies ---   -0.7655   -0.0013   -0.0010   -0.0009    0.3771    0.5833
 Low frequencies ---  135.0754  150.4899  199.0762
 OrtVCM:  Ph=1 IPass= 1 DotMx1= 0.00D+00
 OrtVCM:  IS=    1 I=    1 IndO=    1 Dot= 1.00D+00 DotN= 1.00D+00 ElMax1= 4.65D-01 ElMax1N= 4.65D-01
 OrtVCM:  Ph=2 NNew=    0 IAdd=    2 IPass= 1 DotMx2= 0.00D+00
 OrtVCM:  IS=    1 I=    2 IndO=    2 Dot= 1.00D+00 DotN= 1.00D+00 ElMax1= 4.65D-01 ElMax1N= 4.65D-01
 OrtVCM:  Ph=2 NNew=    0 IAdd=    3 IPass= 1 DotMx2= 0.00D+00
 OrtVCM:  IS=    1 I=    3 IndO=    3 Dot= 1.00D+00 DotN= 1.00D+00 ElMax1= 4.65D-01 ElMax1N= 4.65D-01
 OrtVCM:  Ph=2 NNew=    0 IAdd=    4 IPass= 1 DotMx2= 5.55D-17
 OrtVCM:  IS=    1 I=    4 IndO=    4 Dot= 1.00D+00 DotN= 1.00D+00 ElMax1= 7.89D-01 ElMax1N= 7.89D-01
 OrtVCM:  Ph=2 NNew=    0 IAdd=    5 IPass= 1 DotMx2= 5.83D-16
 OrtVCM:  IS=    1 I=    5 IndO=    5 Dot= 1.00D+00 DotN= 1.00D+00 ElMax1= 8.79D-01 ElMax1N= 8.79D-01
 OrtVCM:  Ph=2 NNew=    0 IAdd=    6 IPass= 1 DotMx2= 9.02D-16
 OrtVCM:  IS=    1 I=    6 IndO=    6 Dot= 1.00D+00 DotN= 1.00D+00 ElMax1= 8.73D-01 ElMax1N= 8.73D-01
 OrtVCM:  Ph=1 IPass= 1 DotMx1= 4.65D-01
 OrtVCM:  Ph=1 IPass= 2 DotMx1= 1.14D-16
 OrtVCM:  IS=    1 I=    1 IndO=    7 Dot= 8.63D-01 DotN= 8.63D-01 ElMax1= 8.63D-01 ElMax1N= 8.63D-01
 OrtVCM:  Ph=2 NNew=    0 IAdd=    2 IPass= 1 DotMx2= 5.14D-04
 OrtVCM:  Ph=2 NNew=    0 IAdd=    2 IPass= 2 DotMx2= 2.17D-19
 OrtVCM:  IS=    1 I=    2 IndO=    8 Dot= 8.17D-01 DotN= 8.17D-01 ElMax1= 8.17D-01 ElMax1N= 8.17D-01
 OrtVCM:  Ph=2 NNew=    0 IAdd=    3 IPass= 1 DotMx2= 2.60D-03
 OrtVCM:  Ph=2 NNew=    0 IAdd=    3 IPass= 2 DotMx2= 1.30D-18
 OrtVCM:  IS=    1 I=    3 IndO=    9 Dot= 8.27D-01 DotN= 8.27D-01 ElMax1= 8.27D-01 ElMax1N= 8.27D-01
 OrtVCM:  Ph=2 NNew=    0 IAdd=    4 IPass= 1 DotMx2= 1.84D-01
 OrtVCM:  Ph=2 NNew=    0 IAdd=    4 IPass= 2 DotMx2= 1.46D-17
 OrtVCM:  IS=    1 I=    4 IndO=   10 Dot= 7.48D-01 DotN= 7.48D-01 ElMax1= 7.48D-01 ElMax1N= 7.48D-01
 OrtVCM:  Ph=2 NNew=    0 IAdd=    5 IPass= 1 DotMx2= 2.03D-01
 OrtVCM:  Ph=2 NNew=    0 IAdd=    5 IPass= 2 DotMx2= 3.47D-18
 OrtVCM:  IS=    1 I=    5 IndO=   11 Dot= 6.92D-01 DotN= 6.92D-01 ElMax1= 6.92D-01 ElMax1N= 6.92D-01
 OrtVCM:  Ph=2 NNew=    0 IAdd=    6 IPass= 1 DotMx2= 2.13D-01
 OrtVCM:  Ph=2 NNew=    0 IAdd=    6 IPass= 2 DotMx2= 6.94D-17
 OrtVCM:  IS=    1 I=    6 IndO=   12 Dot= 5.73D-01 DotN= 5.73D-01 ElMax1= 5.73D-01 ElMax1N= 5.73D-01
 OrtVCM:  Ph=2 NNew=    0 IAdd=    7 IPass= 1 DotMx2= 2.92D-01
 OrtVCM:  Ph=2 NNew=    0 IAdd=    7 IPass= 2 DotMx2= 5.20D-18
 OrtVCM:  IS=    1 I=    7 IndO=   13 Dot= 6.61D-01 DotN= 6.61D-01 ElMax1= 6.61D-01 ElMax1N= 6.61D-01
 OrtVCM:  Ph=2 NNew=    0 IAdd=    8 IPass= 1 DotMx2= 3.67D-01
 OrtVCM:  Ph=2 NNew=    0 IAdd=    8 IPass= 2 DotMx2= 6.25D-17
 OrtVCM:  IS=    1 I=    8 IndO=   14 Dot= 4.65D-01 DotN= 4.65D-01 ElMax1= 4.93D-01 ElMax1N= 4.93D-01
 OrtVCM:  Ph=2 NNew=    0 IAdd=    9 IPass= 1 DotMx2= 6.44D-01
 OrtVCM:  Ph=2 NNew=    0 IAdd=    9 IPass= 2 DotMx2= 7.88D-17
 OrtVCM:  IS=    1 I=    9 IndO=    0 Dot= 1.19D-32 DotN= 1.19D-32 ElMax1= 7.17D-17 ElMax1N= 7.17D-17
 SchOr2:  IPass= 1 Test2A= 1.00D-01 IOff=     0 NDo=     9 NNew=     8
 OrtVCM:  Ph=1 IPass= 1 DotMx1= 4.65D-01
 OrtVCM:  Ph=1 IPass= 2 DotMx1= 8.33D-17
 OrtVCM:  IS=    1 I=    1 IndO=   15 Dot= 4.96D-01 DotN= 4.96D-01 ElMax1= 4.96D-01 ElMax1N= 4.96D-01
 SchOr2:  IPass= 1 Test2A= 1.00D-01 IOff=     9 NDo=     1 NNew=     1
 VibFq2-Diag2:  N=      9 IV=           6 MDV=   655346161 NE2=    72816239
 ******    1 imaginary frequencies (negative Signs) ****** 
 Dipole derivatives wrt mode   1: -1.74802D+00 -7.06729D-04  4.77815D-03
 Polarizability derivatives wrt mode          1
                 1             2             3 
      1  -0.327325D-04 -0.117725D-05 -0.140430D-05
      2  -0.117725D-05  0.138774D-04 -0.179125D-05
      3  -0.140430D-05 -0.179125D-05  0.103692D-04
 Vibrational polarizability contributions from mode   1  140385.5992346       0.0229475       1.0489326
 IFr=  0 A012= 0.11D-09 0.12D-07 0.21D-08 Act= 0.15D-07 DepolP= 0.72D+00 DepolU= 0.84D+00
 Dipole derivatives wrt mode   2:  1.69606D-01  4.29870D-01  4.35822D-02
 Polarizability derivatives wrt mode          2
                 1             2             3 
      1  -0.712652D-03 -0.100205D-01  0.156802D-01
      2  -0.100205D-01 -0.462555D-02  0.228421D-01
      3   0.156802D-01  0.228421D-01  0.829310D-02
 Vibrational polarizability contributions from mode   2       0.0362636       0.2329492       0.0023944
 IFr=  0 A012= 0.13D-04 0.16D-01 0.27D-02 Act= 0.19D-01 DepolP= 0.75D+00 DepolU= 0.86D+00
 Dipole derivatives wrt mode   3:  9.97725D-02 -6.71325D-02  2.80582D-01
 Polarizability derivatives wrt mode          3
                 1             2             3 
      1  -0.385597D-01  0.120329D-01  0.933847D-01
      2   0.120329D-01  0.222906D-02 -0.369681D-02
      3   0.933847D-01 -0.369681D-02  0.343911D-01
 Vibrational polarizability contributions from mode   3       0.0070073       0.0031724       0.0554175
 IFr=  0 A012= 0.56D-05 0.18D+00 0.31D-01 Act= 0.21D+00 DepolP= 0.75D+00 DepolU= 0.86D+00
 Dipole derivatives wrt mode   4: -2.82230D+00 -1.18683D+00 -6.24796D-01
 Polarizability derivatives wrt mode          4
                 1             2             3 
      1   0.889891D-03  0.194970D+00  0.644381D-02
      2   0.194970D+00 -0.488893D-01  0.470945D-01
      3   0.644381D-02  0.470945D-01 -0.137857D-02
 Vibrational polarizability contributions from mode   4       0.5818053       0.1028837       0.0285134
 IFr=  0 A012= 0.37D-02 0.75D+00 0.12D+00 Act= 0.87D+00 DepolP= 0.73D+00 DepolU= 0.85D+00
 Dipole derivatives wrt mode   5:  9.78050D-01 -3.30920D+00 -9.28239D-02
 Polarizability derivatives wrt mode          5
                 1             2             3 
      1   0.215524D+00 -0.268888D-01  0.390915D-01
      2  -0.268888D-01 -0.184636D+00  0.109330D-01
      3   0.390915D-01  0.109330D-01  0.139065D-01
 Vibrational polarizability contributions from mode   5       0.0641656       0.7345580       0.0005780
 IFr=  0 A012= 0.30D-02 0.77D+00 0.13D+00 Act= 0.90D+00 DepolP= 0.74D+00 DepolU= 0.85D+00
 Dipole derivatives wrt mode   6: -1.98484D+00  1.82050D-01  8.69045D+00
 Polarizability derivatives wrt mode          6
                 1             2             3 
      1   0.846964D-01 -0.256990D-02  0.446683D-01
      2  -0.256990D-02  0.939392D-01  0.203325D-01
      3   0.446683D-01  0.203325D-01 -0.179373D+00
 Vibrational polarizability contributions from mode   6       0.1399819       0.0011776       2.6835149
 IFr=  0 A012= 0.82D-06 0.48D+00 0.80D-01 Act= 0.56D+00 DepolP= 0.75D+00 DepolU= 0.86D+00
 Dipole derivatives wrt mode   7:  1.99135D+00 -3.66027D+00  6.10909D+00
 Polarizability derivatives wrt mode          7
                 1             2             3 
      1  -0.397290D+00  0.153874D-01 -0.663247D-01
      2   0.153874D-01 -0.374897D+00  0.483907D-01
      3  -0.663247D-01  0.483907D-01 -0.225732D+00
 Vibrational polarizability contributions from mode   7       0.1012079       0.3419348       0.9525105
 IFr=  0 A012= 0.15D+01 0.33D+01 0.54D+00 Act= 0.53D+01 DepolP= 0.27D-01 DepolU= 0.53D-01
 Dipole derivatives wrt mode   8:  2.07561D+01 -4.44477D-01  2.96110D+00
 Polarizability derivatives wrt mode          8
                 1             2             3 
      1   0.740467D-01  0.128644D+00 -0.142935D+00
      2   0.128644D+00  0.763150D-01  0.293143D-01
      3  -0.142935D+00  0.293143D-01 -0.194608D-01
 Vibrational polarizability contributions from mode   8       5.4661792       0.0025066       0.1112495
 IFr=  0 A012= 0.26D-01 0.79D+00 0.13D+00 Act= 0.94D+00 DepolP= 0.64D+00 DepolU= 0.78D+00
 Dipole derivatives wrt mode   9:  9.19844D-01  2.18832D+01  1.49111D+00
 Polarizability derivatives wrt mode          9
                 1             2             3 
      1   0.506453D-01  0.476168D-01  0.123947D-01
      2   0.476168D-01 -0.112452D+00 -0.136405D+00
      3   0.123947D-01 -0.136405D+00 -0.372972D-01
 Vibrational polarizability contributions from mode   9       0.0075815       4.2909072       0.0199225
 IFr=  0 A012= 0.15D-01 0.53D+00 0.88D-01 Act= 0.63D+00 DepolP= 0.65D+00 DepolU= 0.79D+00
 Diagonal vibrational polarizability:
   140392.0034268       5.7330370       4.9030333
 Diagonal vibrational hyperpolarizability:
      293.6485180       6.1670036      -9.1778121
 NorSel:  MapVib=      1      2      3      4      5      6      7      8      9
 Harmonic frequencies (cm**-1), IR intensities (KM/Mole), Raman scattering
 activities (A**4/AMU), depolarization ratios for plane and unpolarized
 incident light, reduced masses (AMU), force constants (mDyne/A),
 and normal coordinates:
                           1         2         3         4         5
                           A         A         A         A         A
       Frequencies ---    -0.7653  146.1077  195.5253  606.9885  633.3980
    Reduced masses ---    18.5912   18.9609   18.9508   18.3248   18.2967
   Force constants ---     0.0000    0.2385    0.4269    3.9779    4.3249
    IR Intensities ---     3.0556    0.2155    0.0932    9.7643   11.9160
  Raman Activities ---     0.0000    0.0192    0.2146    0.8745    0.9005
    Depol. (Plane) ---     0.7183    0.7470    0.7499    0.7319    0.7355
    Depol. (Unpol) ---     0.8361    0.8552    0.8571    0.8452    0.8476
 Coord Atom Element:
   1     1     6         -0.24120   0.02644   0.06058  -0.28319   0.09228
   2     1     6         -0.00010   0.06819  -0.01130  -0.11053  -0.30256
   3     1     6          0.00067   0.00264   0.05486  -0.06192  -0.01428
   1     2     9         -0.24120   0.23581  -0.20329  -0.12058   0.50799
   2     2     9         -0.00010   0.50544  -0.07014   0.56669   0.21609
   3     2     9          0.00067   0.08964   0.72407  -0.05321   0.09774
   1     3     9         -0.24120   0.33830   0.03556  -0.26100  -0.45362
   2     3     9         -0.00010  -0.39217   0.04346  -0.39588   0.40968
   3     3     9          0.00067  -0.16688  -0.62457  -0.04003  -0.09380
   1     4     9          0.87595   0.00001  -0.00030   0.00002   0.00000
   2     4     9          0.00036  -0.14439   0.02650  -0.00662   0.00156
   3     4     9         -0.00242  -0.01935  -0.10476   0.00701  -0.00163
   1     5     9         -0.24120  -0.59082   0.12976   0.56043  -0.11265
   2     5     9         -0.00010  -0.01195   0.00732  -0.09437  -0.43622
   3     5     9          0.00067   0.09493  -0.02939   0.12534   0.00671
                           6         7         8         9
                           A         A         A         A
       Frequencies ---   870.2755 1026.8524 1456.3674 1733.0163
    Reduced masses ---    14.2535   16.2402   13.2390   13.3482
   Force constants ---     6.3604   10.0892   16.5443   23.6199
    IR Intensities ---    79.4966   54.6840  439.7825  481.9436
  Raman Activities ---     0.5565    5.3084    0.9430    0.6306
    Depol. (Plane) ---     0.7500    0.0273    0.6384    0.6534
    Depol. (Unpol) ---     0.8571    0.0532    0.7793    0.7904
 Coord Atom Element:
   1     1     6         -0.16903   0.05919   0.90216   0.02740
   2     1     6         -0.00049  -0.20108  -0.02036   0.89245
   3     1     6          0.80587   0.59176   0.09302   0.10073
   1     2     9          0.27771  -0.38991  -0.20435   0.03195
   2     2     9         -0.10690   0.23081   0.07596  -0.06103
   3     2     9         -0.12904  -0.20378  -0.06519   0.01933
   1     3     9         -0.19260   0.34012  -0.29598  -0.08746
   2     3     9         -0.16921   0.28084  -0.15626  -0.10370
   3     3     9         -0.20043  -0.05396   0.00233   0.01144
   1     4     9          0.00001   0.00000  -0.00001   0.00000
   2     4     9         -0.00216   0.00028   0.00194  -0.00065
   3     4     9          0.00163  -0.00082  -0.00395  -0.00019
   1     5     9          0.02165   0.01241  -0.06949   0.03820
   2     5     9          0.27858  -0.38491   0.09122  -0.39832
   3     5     9         -0.18116  -0.11522   0.00805  -0.09420
 Harmonic frequencies (cm**-1), IR intensities (KM/Mole), Raman scattering
 activities (A**4/AMU), depolarization ratios for plane and unpolarized
 incident light, reduced masses (AMU), force constants (mDyne/A),
 and normal coordinates:
                      1                      2                      3
                      A                      A                      A
 Frequencies --     -0.7653               146.1077               195.5253
 Red. masses --     18.5912                18.9609                18.9508
 Frc consts  --      0.0000                 0.2385                 0.4269
 IR Inten    --      3.0556                 0.2155                 0.0932
 Raman Activ --      0.0000                 0.0192                 0.2146
 Depolar (P) --      0.7183                 0.7470                 0.7499
 Depolar (U) --      0.8361                 0.8552                 0.8571
  Atom  AN      X      Y      Z        X      Y      Z        X      Y      Z
     1   6    -0.24   0.00   0.00     0.03   0.07   0.00     0.06  -0.01   0.05
     2   9    -0.24   0.00   0.00     0.24   0.51   0.09    -0.20  -0.07   0.72
     3   9    -0.24   0.00   0.00     0.34  -0.39  -0.17     0.04   0.04  -0.62
     4   9     0.88   0.00   0.00     0.00  -0.14  -0.02     0.00   0.03  -0.10
     5   9    -0.24   0.00   0.00    -0.59  -0.01   0.09     0.13   0.01  -0.03
                      4                      5                      6
                      A                      A                      A
 Frequencies --    606.9885               633.3980               870.2755
 Red. masses --     18.3248                18.2967                14.2535
 Frc consts  --      3.9779                 4.3249                 6.3604
 IR Inten    --      9.7643                11.9160                79.4966
 Raman Activ --      0.8745                 0.9005                 0.5565
 Depolar (P) --      0.7319                 0.7355                 0.7500
 Depolar (U) --      0.8452                 0.8476                 0.8571
  Atom  AN      X      Y      Z        X      Y      Z        X      Y      Z
     1   6    -0.28  -0.11  -0.06     0.09  -0.30  -0.01    -0.17   0.00   0.81
     2   9    -0.12   0.57  -0.05     0.51   0.22   0.10     0.28  -0.11  -0.13
     3   9    -0.26  -0.40  -0.04    -0.45   0.41  -0.09    -0.19  -0.17  -0.20
     4   9     0.00  -0.01   0.01     0.00   0.00   0.00     0.00   0.00   0.00
     5   9     0.56  -0.09   0.13    -0.11  -0.44   0.01     0.02   0.28  -0.18
                      7                      8                      9
                      A                      A                      A
 Frequencies --   1026.8524              1456.3674              1733.0163
 Red. masses --     16.2402                13.2390                13.3482
 Frc consts  --     10.0892                16.5443                23.6199
 IR Inten    --     54.6840               439.7825               481.9436
 Raman Activ --      5.3084                 0.9430                 0.6306
 Depolar (P) --      0.0273                 0.6384                 0.6534
 Depolar (U) --      0.0532                 0.7793                 0.7904
  Atom  AN      X      Y      Z        X      Y      Z        X      Y      Z
     1   6     0.06  -0.20   0.59     0.90  -0.02   0.09     0.03   0.89   0.10
     2   9    -0.39   0.23  -0.20    -0.20   0.08  -0.07     0.03  -0.06   0.02
     3   9     0.34   0.28  -0.05    -0.30  -0.16   0.00    -0.09  -0.10   0.01
     4   9     0.00   0.00   0.00     0.00   0.00   0.00     0.00   0.00   0.00
     5   9     0.01  -0.38  -0.12    -0.07   0.09   0.01     0.04  -0.40  -0.09

 -------------------
 - Thermochemistry -
 -------------------
 Temperature   298.150 Kelvin.  Pressure   1.00000 Atm.
 Atom     1 has atomic number  6 and mass  12.00000
 Atom     2 has atomic number  9 and mass  18.99840
 Atom     3 has atomic number  9 and mass  18.99840
 Atom     4 has atomic number  9 and mass  18.99840
 Atom     5 has atomic number  9 and mass  18.99840
 Molecular mass:    87.99361 amu.
 Principal axes and moments of inertia in atomic units:
                           1         2         3
     Eigenvalues --   163.37881********************
           X            1.00000  -0.00003   0.00013
           Y            0.00003   1.00000  -0.00013
           Z           -0.00013   0.00013   1.00000
 This molecule is an asymmetric top.
 Rotational symmetry number  1.
 Rotational temperatures (Kelvin)      0.53014     0.00808     0.00797
 Rotational constants (GHZ):          11.04636     0.16846     0.16616
    1 imaginary frequencies ignored.
 Zero-point vibrational energy      39886.7 (Joules/Mol)
                                    9.53314 (Kcal/Mol)
 Warning -- explicit consideration of   3 degrees of freedom as
           vibrations may cause significant error
 Vibrational temperatures:    210.22   281.32   873.32   911.32  1252.13
          (Kelvin)           1477.41  2095.39  2493.42
 
 Zero-point correction=                           0.015192 (Hartree/Particle)
 Thermal correction to Energy=                    0.019642
 Thermal correction to Enthalpy=                  0.020587
 Thermal correction to Gibbs Free Energy=        -0.016485
 Sum of electronic and zero-point Energies=           -435.117118
 Sum of electronic and thermal Energies=              -435.112668
 Sum of electronic and thermal Enthalpies=            -435.111723
 Sum of electronic and thermal Free Energies=         -435.148795
 
                     E (Thermal)             CV                S
                      KCal/Mol        Cal/Mol-Kelvin    Cal/Mol-Kelvin
 Total                   12.326             12.704             78.024
 Electronic               0.000              0.000              1.377
 Translational            0.889              2.981             39.337
 Rotational               0.889              2.981             31.320
 Vibrational             10.548              6.742              5.990
 Vibration     1          0.617              1.907              2.722
 Vibration     2          0.636              1.846              2.175
 Vibration     3          0.966              1.017              0.438
                       Q            Log10(Q)             Ln(Q)
 Total Bot       0.382500D+08          7.582631         17.459654
 Total V=0       0.371934D+15         14.570466         33.549738
 Vib (Bot)       0.377675D-06         -6.422882        -14.789233
 Vib (Bot)    1  0.138934D+01          0.142810          0.328832
 Vib (Bot)    2  0.102152D+01          0.009247          0.021291
 Vib (Bot)    3  0.244231D+00         -0.612199         -1.409640
 Vib (V=0)       0.367242D+01          0.564952          1.300851
 Vib (V=0)    1  0.197658D+01          0.295914          0.681367
 Vib (V=0)    2  0.163732D+01          0.214134          0.493062
 Vib (V=0)    3  0.105646D+01          0.023853          0.054925
 Electronic      0.200000D+01          0.301030          0.693147
 Translational   0.324438D+08          7.511132         17.295020
 Rotational      0.156082D+07          6.193352         14.260719
 
                                                          Distorted Ethanol
                                                             IR Spectrum
 
     1                    1                              1                                                                           
     7                    4                              0           8                6 6                             1   1          
     3                    5                              2           7                3 0                             9   4          
     3                    6                              7           0                3 7                             6   6          
 
     X                    X                              X           X                X X                             X   X          
     X                    X                              X           X                                                               
     X                    X                                          X                                                               
     X                    X                                                                                                          
     X                    X                                                                                                          
     X                    X                                                                                                          
     X                    X                                                                                                          
     X                    X                                                                                                          
     X                    X                                                                                                          
     X                    X                                                                                                          
     X                    X                                                                                                          
     X                    X                                                                                                          
     X                    X                                                                                                          
     X                    X                                                                                                          
     X                    X                                                                                                          
     X                    X                                                                                                          
     X                    X                                                                                                          
     X                    X                                                                                                          
     X                                                                                                                               
     X                                                                                                                               
 
 
                                                          Distorted Ethanol
                                                            Raman Spectrum
 
     1                    1                              1                                                                           
     7                    4                              0           8                6 6                             1   1          
     3                    5                              2           7                3 0                             9   4          
     3                    6                              7           0                3 7                             6   6          
 
     X                    X                              X           X                X X                             X              
     X                    X                              X           X                X X                                            
                          X                              X                            X X                                            
                          X                              X                                                                           
                                                         X                                                                           
                                                         X                                                                           
                                                         X                                                                           
                                                         X                                                                           
                                                         X                                                                           
                                                         X                                                                           
                                                         X                                                                           
                                                         X                                                                           
                                                         X                                                                           
                                                         X                                                                           
                                                         X                                                                           
                                                         X                                                                           
                                                         X                                                                           
                                                         X                                                                           
                                                         X                                                                           
                                                         X                                                                           
 
 Forces in standard orientation:
 -------------------------------------------------------------------
 Center     Atomic                   Forces (Hartrees/Bohr)
 Number     Number              X              Y              Z
 -------------------------------------------------------------------
      1        6           0.006650016    0.079471197   -0.150847417
      2        9           0.048943682   -0.046483355    0.065052479
      3        9          -0.042241002   -0.032270202    0.044574658
      4        9           0.000002138   -0.000000033    0.000000026
      5        9          -0.013354834   -0.000717607    0.041220255
 -------------------------------------------------------------------
 ***** Axes restored to original set *****
 Rotating derivatives, DoTrsp=F IDiff=-2 LEDeriv=    772 LFDPrp=       0 LDFDPr=       0.
 -------------------------------------------------------------------
 Center     Atomic                   Forces (Hartrees/Bohr)
 Number     Number              X              Y              Z
 -------------------------------------------------------------------
      1        6           0.169669103   -0.017869670    0.002812021
      2        9          -0.071458849    0.055200586   -0.025190069
      3        9          -0.060080117   -0.034627849    0.001964642
      4        9           0.000000270    0.000002043   -0.000000571
      5        9          -0.038130407   -0.002705111    0.020413976
 -------------------------------------------------------------------
 Cartesian Forces:  Max     0.169669103 RMS     0.054524241
 Z-matrix is all fixed cartesians, so copy forces.
 Force constants in Cartesian coordinates: 
                1             2             3             4             5 
      1  0.422969D+00
      2  0.699480D-01  0.746994D+00
      3  0.237716D+00  0.434208D-01  0.905962D+00
      4 -0.138239D+00  0.737017D-01 -0.507304D-01  0.108224D+00
      5  0.511364D-01 -0.262164D+00  0.859024D-01 -0.817992D-01  0.346508D+00
      6 -0.348472D-01  0.770097D-01 -0.169174D+00  0.795394D-01 -0.133817D+00
      7 -0.155515D+00 -0.128065D+00 -0.449551D-01  0.228811D-01  0.106360D-01
      8 -0.103744D+00 -0.370099D+00 -0.783751D-01 -0.119475D-01 -0.944623D-01
      9 -0.357981D-01 -0.689191D-01 -0.137656D+00  0.937337D-04  0.199053D-01
     10  0.000000D+00  0.000000D+00  0.000000D+00  0.000000D+00  0.000000D+00
     11  0.000000D+00  0.000000D+00  0.000000D+00  0.000000D+00  0.000000D+00
     12  0.000000D+00  0.000000D+00  0.000000D+00  0.000000D+00  0.000000D+00
     13 -0.129214D+00 -0.155850D-01 -0.142030D+00  0.713417D-02  0.200268D-01
     14 -0.173403D-01 -0.114732D+00 -0.509477D-01  0.200449D-01  0.101179D-01
     15 -0.167071D+00 -0.515112D-01 -0.599132D+00 -0.289027D-01  0.280089D-01
                6             7             8             9            10 
      6  0.191956D+00
      7 -0.329846D-02  0.126907D+00
      8  0.120448D-01  0.148994D+00  0.475732D+00
      9  0.273747D-01  0.783626D-01  0.111058D+00  0.148708D+00
     10  0.000000D+00  0.000000D+00  0.000000D+00  0.000000D+00  0.000000D+00
     11  0.000000D+00  0.000000D+00  0.000000D+00  0.000000D+00  0.000000D+00
     12  0.000000D+00  0.000000D+00  0.000000D+00  0.000000D+00  0.000000D+00
     13 -0.413938D-01  0.572714D-02 -0.333025D-01 -0.426582D-01  0.000000D+00
     14  0.447620D-01 -0.315653D-01 -0.111704D-01 -0.620447D-01  0.000000D+00
     15 -0.501571D-01 -0.301090D-01 -0.447283D-01 -0.384263D-01  0.000000D+00
               11            12            13            14            15 
     11  0.000000D+00
     12  0.000000D+00  0.000000D+00
     13  0.000000D+00  0.000000D+00  0.116353D+00
     14  0.000000D+00  0.000000D+00  0.288607D-01  0.115785D+00
     15  0.000000D+00  0.000000D+00  0.226082D+00  0.682304D-01  0.687715D+00
 Final forces over variables, Energy=-4.35132310D+02:
  1.69669103D-01-7.14588485D-02-6.00801175D-02 2.69877522D-07
 -3.81304066D-02-1.78696696D-02 5.52005855D-02-3.46278487D-02
  2.04333043D-06-2.70511056D-03 2.81202135D-03-2.51900694D-02
  1.96464225D-03-5.70605393D-07 2.04139764D-02
 Leave Link  716 at Sat Mar  4 13:38:52 2017, MaxMem=   655360000 cpu:         0.2
 (Enter /mnt/software/gaussian/g09/l103.exe)

 GradGradGradGradGradGradGradGradGradGradGradGradGradGradGradGradGradGrad
 Berny optimization.
 Search for a local minimum.
 Step number   1 out of a maximum of    2
 All quantities printed in internal units (Hartrees-Bohrs-Radians)
 Second derivative matrix not updated -- analytic derivatives used.
 The second derivative matrix:
                          X1        Y1        Z1        X2        Y2
           X1           0.42297
           Y1           0.06995   0.74699
           Z1           0.23772   0.04342   0.90596
           X2          -0.13824   0.07370  -0.05073   0.10822
           Y2           0.05114  -0.26216   0.08590  -0.08180   0.34651
           Z2          -0.03485   0.07701  -0.16917   0.07954  -0.13382
           X3          -0.15551  -0.12806  -0.04496   0.02288   0.01064
           Y3          -0.10374  -0.37010  -0.07838  -0.01195  -0.09446
           Z3          -0.03580  -0.06892  -0.13766   0.00009   0.01991
           X4           0.00000   0.00000   0.00000   0.00000   0.00000
           Y4           0.00000   0.00000   0.00000   0.00000   0.00000
           Z4           0.00000   0.00000   0.00000   0.00000   0.00000
           X5          -0.12921  -0.01559  -0.14203   0.00713   0.02003
           Y5          -0.01734  -0.11473  -0.05095   0.02004   0.01012
           Z5          -0.16707  -0.05151  -0.59913  -0.02890   0.02801
                          Z2        X3        Y3        Z3        X4
           Z2           0.19196
           X3          -0.00330   0.12691
           Y3           0.01204   0.14899   0.47573
           Z3           0.02737   0.07836   0.11106   0.14871
           X4           0.00000   0.00000   0.00000   0.00000   0.00000
           Y4           0.00000   0.00000   0.00000   0.00000   0.00000
           Z4           0.00000   0.00000   0.00000   0.00000   0.00000
           X5          -0.04139   0.00573  -0.03330  -0.04266   0.00000
           Y5           0.04476  -0.03157  -0.01117  -0.06204   0.00000
           Z5          -0.05016  -0.03011  -0.04473  -0.03843   0.00000
                          Y4        Z4        X5        Y5        Z5
           Y4           0.00000
           Z4           0.00000   0.00000
           X5           0.00000   0.00000   0.11635
           Y5           0.00000   0.00000   0.02886   0.11578
           Z5           0.00000   0.00000   0.22608   0.06823   0.68771
 ITU=  0
     Eigenvalues ---    0.00000   0.01534   0.02744   0.25537   0.27754
     Eigenvalues ---    0.39933   0.69705   1.10773   1.57716
 Eigenvalue     1 is  -4.13D-07 should be greater than     0.000000 Eigenvector:
                          Y4        Z4        Y1        Y2        Y3
   1                    0.84566  -0.22953  -0.22158  -0.22158  -0.22158
                          Y5        X4        Z1        Z3        Z5
   1                   -0.22158   0.12931   0.06014   0.06014   0.06014
 Quadratic step=5.837D+00 exceeds max=3.000D-01 adjusted using Lamda=-1.936D-01.
 Angle between NR and scaled steps=  85.72 degrees.
 Angle between quadratic step and forces=  15.32 degrees.
 Linear search not attempted -- first point.
 TrRot= -0.007172  0.001561  0.001609  0.714088 -0.000103 -0.713619
 Variable       Old X    -DE/DX   Delta X   Delta X   Delta X     New X
                                 (Linear)    (Quad)   (Total)
    X1       -0.80866   0.16967   0.00000   0.25659   0.24490  -0.56376
    Y1        9.92241  -0.01787   0.00000  -0.02723  -0.02583   9.89657
    Z1       -1.41451   0.00281   0.00000  -0.05014  -0.04790  -1.46241
    X2        0.19816  -0.07146   0.00000  -0.08588  -0.09680   0.10136
    Y2        8.00221   0.05520   0.00000   0.05277   0.05440   8.05661
    Z2       -0.26437  -0.02519   0.00000  -0.02097  -0.01881  -0.28317
    X3        0.21589  -0.06008   0.00000  -0.06833  -0.08105   0.13484
    Y3       11.99213  -0.03463   0.00000  -0.01506  -0.01338  11.97876
    Z3       -0.78555   0.00196   0.00000   0.02084   0.02327  -0.76227
    X4       -4.32324   0.00000   0.00000  -0.00033  -0.00066  -4.32390
    Y4      -15.51265   0.00000   0.00000   0.00083   0.00001 -15.51264
    Z4        5.37144   0.00000   0.00000  -0.00075  -0.00053   5.37091
    X5       -1.42330  -0.03813   0.00000  -0.05497  -0.06639  -1.48969
    Y5        9.68911  -0.00271   0.00000  -0.01631  -0.01520   9.67391
    Z5       -3.61955   0.02041   0.00000   0.04182   0.04396  -3.57559
         Item               Value     Threshold  Converged?
 Maximum Force            0.169669     0.000450     NO 
 RMS     Force            0.054524     0.000300     NO 
 Maximum Displacement     0.244898     0.001800     NO 
 RMS     Displacement     0.077237     0.001200     NO 
 Predicted change in Energy=-3.927598D-02
 GradGradGradGradGradGradGradGradGradGradGradGradGradGradGradGradGradGrad

 Leave Link  103 at Sat Mar  4 13:38:52 2017, MaxMem=   655360000 cpu:         0.1
 (Enter /mnt/software/gaussian/g09/l9999.exe)

 Test job not archived.
 1\1\GINC-TP-LINUX1\Freq\UHF\6-31G(d)\C1F4(1+,2)\THOMAS\04-Mar-2017\0\\
 #P UHF/6-31g* IOP(7/33=1) IOP(7/8=11) Freq\\Distorted Ethanol\\1,2\C,-
 0.427922,5.250711,-0.748525\F,0.104864,4.234585,-0.139898\F,0.114245,6
 .345964,-0.415694\F,-2.287758,-8.208942,2.842442\F,-0.753179,5.127255,
 -1.915384\\Version=ES64L-G09RevD.01\State=2-A\HF=-435.13231\S2=0.75267
 3\S2-1=0.\S2A=0.750003\RMSD=6.849e-09\RMSF=5.452e-02\ZeroPoint=0.01519
 2\Thermal=0.0196424\Dipole=0.2811147,5.4896878,-1.4127846\DipoleDeriv=
 1.4768198,0.0860356,0.4451724,0.078932,2.3131251,-0.0085279,0.4668138,
 -0.0107757,2.1885661,-0.1680532,0.1709703,-0.1627116,0.0536137,-0.4936
 035,0.186683,-0.0755434,0.1402293,-0.2883532,-0.1751152,-0.2340874,-0.
 1343663,-0.1021824,-0.5992443,-0.1394715,-0.0747114,-0.073692,-0.22925
 59,0.0000805,-0.0000311,0.0000086,-0.0000302,-0.0001505,0.0000647,0.00
 00093,0.000064,0.0000727,-0.1337319,-0.0228874,-0.1481031,-0.030333,-0
 .2201268,-0.0387483,-0.3165682,-0.0558256,-0.6710299\Polar=10.0596974,
 0.1325655,13.2115565,1.8194143,-0.2286668,12.5107053\PolarDeriv=-3.273
 5834,0.1264619,-1.8186412,-0.0485708,0.1603628,-0.9308956,0.0444126,-1
 .7960371,0.2511207,0.1551799,-0.0182599,0.2094359,0.2407278,0.1175723,
 0.1315333,-1.0722809,0.2508528,1.6698644,1.9769363,-1.4528678,0.935535
 6,0.9864632,-0.2825944,0.8606833,-0.832428,1.1541494,-4.607398,-0.4598
 255,1.2153278,-0.9244941,0.4707474,-0.4478599,0.8558531,1.1028882,-1.6
 106219,2.2556603,1.9455818,1.500223,1.0207627,0.5537105,0.1770253,0.74
 86807,0.8790644,1.2410837,4.8361432,0.3236319,0.4771615,0.8677685,0.23
 17548,0.3594037,0.3368319,0.8505924,1.520171,1.1602297,-0.0000568,-0.0
 001714,0.0001414,0.0000426,-0.0000481,-0.000008,-0.0001528,0.0001026,0
 .000592,-0.0000038,0.0002504,-0.0003303,0.0000377,0.0000147,0.0006612,
 0.0001996,0.0013821,-0.0007071,-0.6488779,-0.1736457,-0.1377985,-1.491
 6456,-0.0547456,-0.6784604,-0.0908962,-0.5992987,-0.4804579,-0.0189825
 ,-1.6744798,-0.1523799,-0.9432677,-0.0291308,-1.3248795,-0.8813993,-0.
 161784,-5.0850473\HyperPolar=-8.3168241,0.0250489,-9.828339,-0.5884373
 ,-1.4223131,1.1331657,-2.3741778,-0.733834,3.2335864,10.2588411\PG=C01
  [X(C1F4)]\NImag=1\\0.42296867,0.06994803,0.74699404,0.23771606,0.0434
 2075,0.90596219,-0.13823928,0.07370168,-0.05073038,0.10822398,0.051136
 44,-0.26216375,0.08590238,-0.08179920,0.34650836,-0.03484717,0.0770097
 2,-0.16917372,0.07953936,-0.13381664,0.19195608,-0.15551482,-0.1280648
 3,-0.04495513,0.02288110,0.01063599,-0.00329846,0.12690658,-0.10374418
 ,-0.37009863,-0.07837510,-0.01194746,-0.09446235,0.01204484,0.14899422
 ,0.47573156,-0.03579814,-0.06891906,-0.13765644,0.00009373,0.01990531,
 0.02737473,0.07836262,0.11105846,0.14870792,-0.00000012,0.00000013,-0.
 00000008,0.00000003,-0.00000004,0.00000002,0.,-0.00000003,0.,0.0000000
 7,0.00000003,0.00000069,-0.00000033,0.00000007,-0.00000017,0.00000009,
 -0.00000006,-0.00000017,0.00000002,-0.00000005,-0.00000029,-0.00000002
 ,-0.00000024,-0.00000035,-0.00000002,0.00000003,0.00000002,0.00000001,
 0.00000007,0.00000004,0.00000001,0.00000013,0.00000016,-0.12921445,-0.
 01558501,-0.14203047,0.00713417,0.02002680,-0.04139375,0.00572714,-0.0
 3330254,-0.04265822,0.00000001,0.,0.00000001,0.11635313,-0.01734032,-0
 .11473236,-0.05094771,0.02004492,0.01011790,0.04476199,-0.03156532,-0.
 01117042,-0.06204472,-0.00000001,-0.00000007,0.00000001,0.02886074,0.1
 1578496,-0.16707073,-0.05151117,-0.59913169,-0.02890269,0.02800892,-0.
 05015712,-0.03010905,-0.04472827,-0.03842626,0.00000004,0.00000010,0.0
 0000013,0.22608243,0.06823043,0.68771493\\-0.16966910,0.01786967,-0.00
 281202,0.07145885,-0.05520059,0.02519007,0.06008012,0.03462785,-0.0019
 6464,-0.00000027,-0.00000204,0.00000057,0.03813041,0.00270511,-0.02041
 398\\\@


 ...THE PHYSICISTS HAVE MADE THEIR UNIVERSE, AND IF YOU DO NOT LIKE
 IT, YOU MUST MAKE YOUR OWN.
                               -- E. R. HARRISON IN "COSMOLOGY" (1980)
 Job cpu time:       0 days  0 hours  0 minutes 21.3 seconds.
 File lengths (MBytes):  RWF=     12 Int=      0 D2E=      0 Chk=      2 Scr=      1
 Normal termination of Gaussian 09 at Sat Mar  4 13:38:53 2017.
