 Entering Gaussian System, Link 0=g09
 Input=/home/thomas/cf4/DD-vMCG/dd_data/gwp3_V1_dd_data.com
 Output=/home/thomas/cf4/DD-vMCG/dd_data/gwp3_V1_dd_data.log
 Initial command:
 /mnt/software/gaussian/g09/l1.exe "/scratch/Gau-32361.inp" -scrdir="/scratch/"
 Entering Link 1 = /mnt/software/gaussian/g09/l1.exe PID=     32363.
  
 Copyright (c) 1988,1990,1992,1993,1995,1998,2003,2009,2013,
            Gaussian, Inc.  All Rights Reserved.
  
 This is part of the Gaussian(R) 09 program.  It is based on
 the Gaussian(R) 03 system (copyright 2003, Gaussian, Inc.),
 the Gaussian(R) 98 system (copyright 1998, Gaussian, Inc.),
 the Gaussian(R) 94 system (copyright 1995, Gaussian, Inc.),
 the Gaussian 92(TM) system (copyright 1992, Gaussian, Inc.),
 the Gaussian 90(TM) system (copyright 1990, Gaussian, Inc.),
 the Gaussian 88(TM) system (copyright 1988, Gaussian, Inc.),
 the Gaussian 86(TM) system (copyright 1986, Carnegie Mellon
 University), and the Gaussian 82(TM) system (copyright 1983,
 Carnegie Mellon University). Gaussian is a federally registered
 trademark of Gaussian, Inc.
  
 This software contains proprietary and confidential information,
 including trade secrets, belonging to Gaussian, Inc.
  
 This software is provided under written license and may be
 used, copied, transmitted, or stored only in accord with that
 written license.
  
 The following legend is applicable only to US Government
 contracts under FAR:
  
                    RESTRICTED RIGHTS LEGEND
  
 Use, reproduction and disclosure by the US Government is
 subject to restrictions as set forth in subparagraphs (a)
 and (c) of the Commercial Computer Software - Restricted
 Rights clause in FAR 52.227-19.
  
 Gaussian, Inc.
 340 Quinnipiac St., Bldg. 40, Wallingford CT 06492
  
  
 ---------------------------------------------------------------
 Warning -- This program may not be used in any manner that
 competes with the business of Gaussian, Inc. or will provide
 assistance to any competitor of Gaussian, Inc.  The licensee
 of this program is prohibited from giving any competitor of
 Gaussian, Inc. access to this program.  By using this program,
 the user acknowledges that Gaussian, Inc. is engaged in the
 business of creating and licensing software in the field of
 computational chemistry and represents and warrants to the
 licensee that it is not a competitor of Gaussian, Inc. and that
 it will not use this program in any manner prohibited above.
 ---------------------------------------------------------------
  

 Cite this work as:
 Gaussian 09, Revision D.01,
 M. J. Frisch, G. W. Trucks, H. B. Schlegel, G. E. Scuseria, 
 M. A. Robb, J. R. Cheeseman, G. Scalmani, V. Barone, B. Mennucci, 
 G. A. Petersson, H. Nakatsuji, M. Caricato, X. Li, H. P. Hratchian, 
 A. F. Izmaylov, J. Bloino, G. Zheng, J. L. Sonnenberg, M. Hada, 
 M. Ehara, K. Toyota, R. Fukuda, J. Hasegawa, M. Ishida, T. Nakajima, 
 Y. Honda, O. Kitao, H. Nakai, T. Vreven, J. A. Montgomery, Jr., 
 J. E. Peralta, F. Ogliaro, M. Bearpark, J. J. Heyd, E. Brothers, 
 K. N. Kudin, V. N. Staroverov, T. Keith, R. Kobayashi, J. Normand, 
 K. Raghavachari, A. Rendell, J. C. Burant, S. S. Iyengar, J. Tomasi, 
 M. Cossi, N. Rega, J. M. Millam, M. Klene, J. E. Knox, J. B. Cross, 
 V. Bakken, C. Adamo, J. Jaramillo, R. Gomperts, R. E. Stratmann, 
 O. Yazyev, A. J. Austin, R. Cammi, C. Pomelli, J. W. Ochterski, 
 R. L. Martin, K. Morokuma, V. G. Zakrzewski, G. A. Voth, 
 P. Salvador, J. J. Dannenberg, S. Dapprich, A. D. Daniels, 
 O. Farkas, J. B. Foresman, J. V. Ortiz, J. Cioslowski, 
 and D. J. Fox, Gaussian, Inc., Wallingford CT, 2013.
 
 ******************************************
 Gaussian 09:  ES64L-G09RevD.01 24-Apr-2013
                 4-Mar-2017 
 ******************************************
 %mem=5000MB
 %Nprocshared=6
 Will use up to    6 processors via shared memory.
 %chk=gwp3_V1_dd_data.chk
 ------------------------------------------
 #P UHF/6-31g* IOP(7/33=1) IOP(7/8=11) Freq
 ------------------------------------------
 1/10=4,30=1,38=1/1,3;
 2/12=2,17=6,18=5,40=1/2;
 3/5=1,6=6,7=1,11=2,16=1,25=1,30=1,71=2,116=2,140=1/1,2,3;
 4//1;
 5/5=2,38=5,98=1/2;
 8/6=4,10=90,11=11/1;
 10/13=10,15=4/2;
 11/6=3,8=1,9=11,15=111,16=1/1,2,10;
 10/6=1/2;
 6/7=2,8=2,9=2,10=2,18=1,28=1/1;
 7/8=11,10=1,25=1,33=1/1,2,3,16;
 1/10=4,30=1/3;
 99//99;
 Leave Link    1 at Sat Mar  4 13:43:15 2017, MaxMem=   655360000 cpu:         0.1
 (Enter /mnt/software/gaussian/g09/l101.exe)
 -----------------
 Distorted Ethanol
 -----------------
 Symbolic Z-matrix:
 Charge =  1 Multiplicity = 2
 6                     0.43405   4.67961  -1.02237 
 9                     1.68966   4.71518  -0.95073 
 9                    -0.13825   5.22489  -0.07774 
 9                    -4.41239  -6.69803   3.92136 
 9                    -0.01045   5.03198  -2.15123 
 
 NAtoms=      5 NQM=        5 NQMF=       0 NMMI=      0 NMMIF=      0
                NMic=       0 NMicF=      0.
                    Isotopes and Nuclear Properties:
 (Nuclear quadrupole moments (NQMom) in fm**2, nuclear magnetic moments (NMagM)
  in nuclear magnetons)

  Atom         1           2           3           4           5
 IAtWgt=          12          19          19          19          19
 AtmWgt=  12.0000000  18.9984033  18.9984033  18.9984033  18.9984033
 NucSpn=           0           1           1           1           1
 AtZEff=   0.0000000   0.0000000   0.0000000   0.0000000   0.0000000
 NQMom=    0.0000000   0.0000000   0.0000000   0.0000000   0.0000000
 NMagM=    0.0000000   2.6288670   2.6288670   2.6288670   2.6288670
 AtZNuc=   6.0000000   9.0000000   9.0000000   9.0000000   9.0000000
 Leave Link  101 at Sat Mar  4 13:43:15 2017, MaxMem=   655360000 cpu:         0.3
 (Enter /mnt/software/gaussian/g09/l103.exe)

 GradGradGradGradGradGradGradGradGradGradGradGradGradGradGradGradGradGrad
 Berny optimization.
 Initialization pass.
 Trust Radius=3.00D-01 FncErr=1.00D-07 GrdErr=1.00D-07
 Number of steps in this run=      2 maximum allowed number of steps=      2.
 GradGradGradGradGradGradGradGradGradGradGradGradGradGradGradGradGradGrad

 Leave Link  103 at Sat Mar  4 13:43:15 2017, MaxMem=   655360000 cpu:         0.1
 (Enter /mnt/software/gaussian/g09/l202.exe)
                          Input orientation:                          
 ---------------------------------------------------------------------
 Center     Atomic      Atomic             Coordinates (Angstroms)
 Number     Number       Type             X           Y           Z
 ---------------------------------------------------------------------
      1          6           0        0.434053    4.679611   -1.022368
      2          9           0        1.689659    4.715175   -0.950725
      3          9           0       -0.138247    5.224888   -0.077737
      4          9           0       -4.412388   -6.698032    3.921360
      5          9           0       -0.010454    5.031976   -2.151233
 ---------------------------------------------------------------------
                    Distance matrix (angstroms):
                    1          2          3          4          5
     1  C    0.000000
     2  F    1.258151   0.000000
     3  F    1.231739   2.088817   0.000000
     4  F   13.318378  13.828720  13.282209   0.000000
     5  F    1.263362   2.105224   2.086368  13.922877   0.000000
 Stoichiometry    CF4(1+,2)
 Framework group  C1[X(CF4)]
 Deg. of freedom     9
 Full point group                 C1      NOp   1
 Largest Abelian subgroup         C1      NOp   1
 Largest concise Abelian subgroup C1      NOp   1
                         Standard orientation:                         
 ---------------------------------------------------------------------
 Center     Atomic      Atomic             Coordinates (Angstroms)
 Number     Number       Type             X           Y           Z
 ---------------------------------------------------------------------
      1          6           0       -2.655455    0.000912   -0.064929
      2          9           0       -3.115609    1.120809   -0.407031
      3          9           0       -2.563818   -0.153076    1.153706
      4          9           0       10.662914   -0.000742   -0.049389
      5          9           0       -3.213185   -0.967600   -0.654001
 ---------------------------------------------------------------------
 Rotational constants (GHZ):      6.4169848      0.1813498      0.1809965
 Leave Link  202 at Sat Mar  4 13:43:15 2017, MaxMem=   655360000 cpu:         0.0
 (Enter /mnt/software/gaussian/g09/l301.exe)
 Standard basis: 6-31G(d) (6D, 7F)
 Ernie: Thresh=  0.10000D-02 Tol=  0.10000D-05 Strict=F.
 There are    75 symmetry adapted cartesian basis functions of A   symmetry.
 There are    75 symmetry adapted basis functions of A   symmetry.
    75 basis functions,   140 primitive gaussians,    75 cartesian basis functions
    21 alpha electrons       20 beta electrons
       nuclear repulsion energy       141.5066582678 Hartrees.
 IExCor=    0 DFT=F Ex=HF Corr=None ExCW=0 ScaHFX=  1.000000
 ScaDFX=  1.000000  1.000000  1.000000  1.000000 ScalE2=  1.000000  1.000000
 IRadAn=      0 IRanWt=     -1 IRanGd=            0 ICorTp=0 IEmpDi=  4
 NAtoms=    5 NActive=    5 NUniq=    5 SFac= 1.00D+00 NAtFMM=   60 NAOKFM=F Big=F
 Integral buffers will be    131072 words long.
 Raffenetti 2 integral format.
 Two-electron integral symmetry is turned on.
 Leave Link  301 at Sat Mar  4 13:43:15 2017, MaxMem=   655360000 cpu:         0.3
 (Enter /mnt/software/gaussian/g09/l302.exe)
 NPDir=0 NMtPBC=     1 NCelOv=     1 NCel=       1 NClECP=     1 NCelD=      1
         NCelK=      1 NCelE2=     1 NClLst=     1 CellRange=     0.0.
 One-electron integrals computed using PRISM.
 NBasis=    75 RedAO= T EigKep=  3.28D-03  NBF=    75
 NBsUse=    75 1.00D-06 EigRej= -1.00D+00 NBFU=    75
 Leave Link  302 at Sat Mar  4 13:43:16 2017, MaxMem=   655360000 cpu:         0.8
 (Enter /mnt/software/gaussian/g09/l303.exe)
 DipDrv:  MaxL=1.
 Leave Link  303 at Sat Mar  4 13:43:16 2017, MaxMem=   655360000 cpu:         0.1
 (Enter /mnt/software/gaussian/g09/l401.exe)
 ExpMin= 1.69D-01 ExpMax= 7.00D+03 ExpMxC= 1.05D+03 IAcc=1 IRadAn=         1 AccDes= 0.00D+00
 Harris functional with IExCor=  205 and IRadAn=       1 diagonalized for initial guess.
 HarFok:  IExCor=  205 AccDes= 0.00D+00 IRadAn=         1 IDoV= 1 UseB2=F ITyADJ=14
 ICtDFT=  3500011 ScaDFX=  1.000000  1.000000  1.000000  1.000000
 FoFCou: FMM=F IPFlag=           0 FMFlag=      100000 FMFlg1=           0
         NFxFlg=           0 DoJE=T BraDBF=F KetDBF=T FulRan=T
         wScrn=  0.000000 ICntrl=     500 IOpCl=  0 I1Cent=   200000004 NGrid=           0
         NMat0=    1 NMatS0=      1 NMatT0=    0 NMatD0=    1 NMtDS0=    0 NMtDT0=    0
 Petite list used in FoFCou.
 Harris En= -435.012351405791    
 JPrj=0 DoOrth=F DoCkMO=F.
 Initial guess <Sx>= 0.0000 <Sy>= 0.0000 <Sz>= 0.5000 <S**2>= 0.7500 S= 0.5000
 Leave Link  401 at Sat Mar  4 13:43:16 2017, MaxMem=   655360000 cpu:         0.8
 (Enter /mnt/software/gaussian/g09/l502.exe)
 UHF open shell SCF:
 Using DIIS extrapolation, IDIIS=  1040.
 Integral symmetry usage will be decided dynamically.
 Keep R1 and R2 ints in memory in canonical form, NReq=8999601.
 IVT=       36430 IEndB=       36430 NGot=   655360000 MDV=   647198221
 LenX=   647198221 LenY=   647192155
 Requested convergence on RMS density matrix=1.00D-08 within 128 cycles.
 Requested convergence on MAX density matrix=1.00D-06.
 Requested convergence on             energy=1.00D-06.
 No special actions if energy rises.
 FoFCou: FMM=F IPFlag=           0 FMFlag=           0 FMFlg1=           0
         NFxFlg=           0 DoJE=F BraDBF=F KetDBF=F FulRan=T
         wScrn=  0.000000 ICntrl=     600 IOpCl=  0 I1Cent=           0 NGrid=           0
         NMat0=    1 NMatS0=   2850 NMatT0=    0 NMatD0=    1 NMtDS0=    0 NMtDT0=    0
 Symmetry not used in FoFCou.

 Cycle   1  Pass 1  IDiag  1:
 E= -435.034469371396    
 DIIS: error= 7.71D-02 at cycle   1 NSaved=   1.
 NSaved= 1 IEnMin= 1 EnMin= -435.034469371396     IErMin= 1 ErrMin= 7.71D-02
 ErrMax= 7.71D-02  0.00D+00 EMaxC= 1.00D-01 BMatC= 1.02D+00 BMatP= 1.02D+00
 IDIUse=3 WtCom= 2.29D-01 WtEn= 7.71D-01
 Coeff-Com:  0.100D+01
 Coeff-En:   0.100D+01
 Coeff:      0.100D+01
 Gap=     0.476 Goal=   None    Shift=    0.000
 Gap=     0.788 Goal=   None    Shift=    0.000
 GapD=    0.476 DampG=2.000 DampE=0.500 DampFc=1.0000 IDamp=-1.
 RMSDP=3.92D-03 MaxDP=6.39D-02              OVMax= 5.89D-02

 Cycle   2  Pass 1  IDiag  1:
 E= -435.105142274856     Delta-E=       -0.070672903460 Rises=F Damp=F
 DIIS: error= 1.70D-02 at cycle   2 NSaved=   2.
 NSaved= 2 IEnMin= 2 EnMin= -435.105142274856     IErMin= 2 ErrMin= 1.70D-02
 ErrMax= 1.70D-02  0.00D+00 EMaxC= 1.00D-01 BMatC= 6.85D-02 BMatP= 1.02D+00
 IDIUse=3 WtCom= 8.30D-01 WtEn= 1.70D-01
 Coeff-Com:  0.990D-01 0.901D+00
 Coeff-En:   0.000D+00 0.100D+01
 Coeff:      0.822D-01 0.918D+00
 Gap=     0.452 Goal=   None    Shift=    0.000
 Gap=     0.405 Goal=   None    Shift=    0.000
 RMSDP=1.47D-03 MaxDP=2.69D-02 DE=-7.07D-02 OVMax= 5.10D-02

 Cycle   3  Pass 1  IDiag  1:
 E= -435.115230880716     Delta-E=       -0.010088605860 Rises=F Damp=F
 DIIS: error= 7.23D-03 at cycle   3 NSaved=   3.
 NSaved= 3 IEnMin= 3 EnMin= -435.115230880716     IErMin= 3 ErrMin= 7.23D-03
 ErrMax= 7.23D-03  0.00D+00 EMaxC= 1.00D-01 BMatC= 2.07D-02 BMatP= 6.85D-02
 IDIUse=3 WtCom= 9.28D-01 WtEn= 7.23D-02
 Coeff-Com: -0.237D-01 0.332D+00 0.692D+00
 Coeff-En:   0.000D+00 0.000D+00 0.100D+01
 Coeff:     -0.220D-01 0.308D+00 0.714D+00
 Gap=     0.442 Goal=   None    Shift=    0.000
 Gap=     0.394 Goal=   None    Shift=    0.000
 RMSDP=4.80D-04 MaxDP=1.06D-02 DE=-1.01D-02 OVMax= 1.08D-02

 Cycle   4  Pass 1  IDiag  1:
 E= -435.118472979227     Delta-E=       -0.003242098512 Rises=F Damp=F
 DIIS: error= 1.40D-03 at cycle   4 NSaved=   4.
 NSaved= 4 IEnMin= 4 EnMin= -435.118472979227     IErMin= 4 ErrMin= 1.40D-03
 ErrMax= 1.40D-03  0.00D+00 EMaxC= 1.00D-01 BMatC= 3.85D-04 BMatP= 2.07D-02
 IDIUse=3 WtCom= 9.86D-01 WtEn= 1.40D-02
 Coeff-Com: -0.430D-02-0.600D-01-0.441D-01 0.111D+01
 Coeff-En:   0.000D+00 0.000D+00 0.000D+00 0.100D+01
 Coeff:     -0.424D-02-0.592D-01-0.434D-01 0.111D+01
 Gap=     0.443 Goal=   None    Shift=    0.000
 Gap=     0.393 Goal=   None    Shift=    0.000
 RMSDP=1.49D-04 MaxDP=1.98D-03 DE=-3.24D-03 OVMax= 4.73D-03

 Cycle   5  Pass 1  IDiag  1:
 E= -435.118640559959     Delta-E=       -0.000167580731 Rises=F Damp=F
 DIIS: error= 5.63D-04 at cycle   5 NSaved=   5.
 NSaved= 5 IEnMin= 5 EnMin= -435.118640559959     IErMin= 5 ErrMin= 5.63D-04
 ErrMax= 5.63D-04  0.00D+00 EMaxC= 1.00D-01 BMatC= 4.33D-05 BMatP= 3.85D-04
 IDIUse=3 WtCom= 9.94D-01 WtEn= 5.63D-03
 Coeff-Com:  0.370D-02-0.285D-01-0.734D-01-0.121D+00 0.122D+01
 Coeff-En:   0.000D+00 0.000D+00 0.000D+00 0.000D+00 0.100D+01
 Coeff:      0.368D-02-0.283D-01-0.730D-01-0.120D+00 0.122D+01
 Gap=     0.445 Goal=   None    Shift=    0.000
 Gap=     0.394 Goal=   None    Shift=    0.000
 RMSDP=6.22D-05 MaxDP=1.03D-03 DE=-1.68D-04 OVMax= 2.17D-03

 Cycle   6  Pass 1  IDiag  1:
 E= -435.118663922018     Delta-E=       -0.000023362059 Rises=F Damp=F
 DIIS: error= 1.43D-04 at cycle   6 NSaved=   6.
 NSaved= 6 IEnMin= 6 EnMin= -435.118663922018     IErMin= 6 ErrMin= 1.43D-04
 ErrMax= 1.43D-04  0.00D+00 EMaxC= 1.00D-01 BMatC= 1.98D-06 BMatP= 4.33D-05
 IDIUse=3 WtCom= 9.99D-01 WtEn= 1.43D-03
 Coeff-Com: -0.561D-03 0.864D-02 0.178D-01-0.293D-01-0.266D+00 0.127D+01
 Coeff-En:   0.000D+00 0.000D+00 0.000D+00 0.000D+00 0.000D+00 0.100D+01
 Coeff:     -0.560D-03 0.863D-02 0.178D-01-0.293D-01-0.266D+00 0.127D+01
 Gap=     0.445 Goal=   None    Shift=    0.000
 Gap=     0.394 Goal=   None    Shift=    0.000
 RMSDP=1.35D-05 MaxDP=2.51D-04 DE=-2.34D-05 OVMax= 4.80D-04

 Cycle   7  Pass 1  IDiag  1:
 E= -435.118664912569     Delta-E=       -0.000000990552 Rises=F Damp=F
 DIIS: error= 4.07D-05 at cycle   7 NSaved=   7.
 NSaved= 7 IEnMin= 7 EnMin= -435.118664912569     IErMin= 7 ErrMin= 4.07D-05
 ErrMax= 4.07D-05  0.00D+00 EMaxC= 1.00D-01 BMatC= 2.47D-07 BMatP= 1.98D-06
 IDIUse=1 WtCom= 1.00D+00 WtEn= 0.00D+00
 Coeff-Com: -0.361D-03 0.395D-02 0.860D-02 0.660D-03-0.141D+00 0.325D+00
 Coeff-Com:  0.803D+00
 Coeff:     -0.361D-03 0.395D-02 0.860D-02 0.660D-03-0.141D+00 0.325D+00
 Coeff:      0.803D+00
 Gap=     0.445 Goal=   None    Shift=    0.000
 Gap=     0.393 Goal=   None    Shift=    0.000
 RMSDP=2.59D-06 MaxDP=5.31D-05 DE=-9.91D-07 OVMax= 7.01D-05

 Cycle   8  Pass 1  IDiag  1:
 E= -435.118664971949     Delta-E=       -0.000000059380 Rises=F Damp=F
 DIIS: error= 1.11D-05 at cycle   8 NSaved=   8.
 NSaved= 8 IEnMin= 8 EnMin= -435.118664971949     IErMin= 8 ErrMin= 1.11D-05
 ErrMax= 1.11D-05  0.00D+00 EMaxC= 1.00D-01 BMatC= 2.36D-08 BMatP= 2.47D-07
 IDIUse=1 WtCom= 1.00D+00 WtEn= 0.00D+00
 Coeff-Com:  0.772D-04-0.115D-02-0.270D-02 0.406D-02 0.372D-01-0.168D+00
 Coeff-Com: -0.318D-01 0.116D+01
 Coeff:      0.772D-04-0.115D-02-0.270D-02 0.406D-02 0.372D-01-0.168D+00
 Coeff:     -0.318D-01 0.116D+01
 Gap=     0.445 Goal=   None    Shift=    0.000
 Gap=     0.393 Goal=   None    Shift=    0.000
 RMSDP=1.27D-06 MaxDP=2.27D-05 DE=-5.94D-08 OVMax= 3.19D-05

 Cycle   9  Pass 1  IDiag  1:
 E= -435.118664981262     Delta-E=       -0.000000009313 Rises=F Damp=F
 DIIS: error= 5.00D-06 at cycle   9 NSaved=   9.
 NSaved= 9 IEnMin= 9 EnMin= -435.118664981262     IErMin= 9 ErrMin= 5.00D-06
 ErrMax= 5.00D-06  0.00D+00 EMaxC= 1.00D-01 BMatC= 1.96D-09 BMatP= 2.36D-08
 IDIUse=1 WtCom= 1.00D+00 WtEn= 0.00D+00
 Coeff-Com:  0.411D-04-0.508D-03-0.117D-02 0.514D-03 0.180D-01-0.542D-01
 Coeff-Com: -0.801D-01 0.185D+00 0.932D+00
 Coeff:      0.411D-04-0.508D-03-0.117D-02 0.514D-03 0.180D-01-0.542D-01
 Coeff:     -0.801D-01 0.185D+00 0.932D+00
 Gap=     0.445 Goal=   None    Shift=    0.000
 Gap=     0.393 Goal=   None    Shift=    0.000
 RMSDP=3.20D-07 MaxDP=7.46D-06 DE=-9.31D-09 OVMax= 7.21D-06

 Cycle  10  Pass 1  IDiag  1:
 E= -435.118664981930     Delta-E=       -0.000000000668 Rises=F Damp=F
 DIIS: error= 1.03D-06 at cycle  10 NSaved=  10.
 NSaved=10 IEnMin=10 EnMin= -435.118664981930     IErMin=10 ErrMin= 1.03D-06
 ErrMax= 1.03D-06  0.00D+00 EMaxC= 1.00D-01 BMatC= 1.05D-10 BMatP= 1.96D-09
 IDIUse=1 WtCom= 1.00D+00 WtEn= 0.00D+00
 Coeff-Com: -0.105D-04 0.151D-03 0.344D-03-0.439D-03-0.491D-02 0.193D-01
 Coeff-Com:  0.104D-01-0.106D+00-0.135D+00 0.122D+01
 Coeff:     -0.105D-04 0.151D-03 0.344D-03-0.439D-03-0.491D-02 0.193D-01
 Coeff:      0.104D-01-0.106D+00-0.135D+00 0.122D+01
 Gap=     0.445 Goal=   None    Shift=    0.000
 Gap=     0.393 Goal=   None    Shift=    0.000
 RMSDP=1.08D-07 MaxDP=1.78D-06 DE=-6.68D-10 OVMax= 4.31D-06

 Cycle  11  Pass 1  IDiag  1:
 E= -435.118664981994     Delta-E=       -0.000000000064 Rises=F Damp=F
 DIIS: error= 2.62D-07 at cycle  11 NSaved=  11.
 NSaved=11 IEnMin=11 EnMin= -435.118664981994     IErMin=11 ErrMin= 2.62D-07
 ErrMax= 2.62D-07  0.00D+00 EMaxC= 1.00D-01 BMatC= 8.85D-12 BMatP= 1.05D-10
 IDIUse=1 WtCom= 1.00D+00 WtEn= 0.00D+00
 Coeff-Com:  0.181D-05-0.302D-04-0.697D-04 0.137D-03 0.911D-03-0.422D-02
 Coeff-Com: -0.135D-02 0.316D-01-0.522D-03-0.443D+00 0.142D+01
 Coeff:      0.181D-05-0.302D-04-0.697D-04 0.137D-03 0.911D-03-0.422D-02
 Coeff:     -0.135D-02 0.316D-01-0.522D-03-0.443D+00 0.142D+01
 Gap=     0.445 Goal=   None    Shift=    0.000
 Gap=     0.393 Goal=   None    Shift=    0.000
 RMSDP=3.94D-08 MaxDP=7.89D-07 DE=-6.37D-11 OVMax= 1.72D-06

 Cycle  12  Pass 1  IDiag  1:
 E= -435.118664982002     Delta-E=       -0.000000000008 Rises=F Damp=F
 DIIS: error= 9.35D-08 at cycle  12 NSaved=  12.
 NSaved=12 IEnMin=12 EnMin= -435.118664982002     IErMin=12 ErrMin= 9.35D-08
 ErrMax= 9.35D-08  0.00D+00 EMaxC= 1.00D-01 BMatC= 8.69D-13 BMatP= 8.85D-12
 IDIUse=1 WtCom= 1.00D+00 WtEn= 0.00D+00
 Coeff-Com:  0.388D-06-0.518D-05-0.906D-05 0.695D-05 0.148D-03-0.494D-03
 Coeff-Com: -0.636D-03 0.225D-02 0.840D-02 0.144D-02-0.315D+00 0.130D+01
 Coeff:      0.388D-06-0.518D-05-0.906D-05 0.695D-05 0.148D-03-0.494D-03
 Coeff:     -0.636D-03 0.225D-02 0.840D-02 0.144D-02-0.315D+00 0.130D+01
 Gap=     0.445 Goal=   None    Shift=    0.000
 Gap=     0.393 Goal=   None    Shift=    0.000
 RMSDP=1.28D-08 MaxDP=2.31D-07 DE=-8.41D-12 OVMax= 5.41D-07

 Cycle  13  Pass 1  IDiag  1:
 E= -435.118664982003     Delta-E=       -0.000000000001 Rises=F Damp=F
 DIIS: error= 9.35D-08 at cycle  13 NSaved=  13.
 NSaved=13 IEnMin=13 EnMin= -435.118664982003     IErMin=13 ErrMin= 9.35D-08
 ErrMax= 9.35D-08  0.00D+00 EMaxC= 1.00D-01 BMatC= 1.64D-13 BMatP= 8.69D-13
 IDIUse=1 WtCom= 1.00D+00 WtEn= 0.00D+00
 Coeff-Com: -0.140D-06 0.220D-05 0.520D-05-0.928D-05-0.661D-04 0.308D-03
 Coeff-Com:  0.742D-04-0.216D-02-0.104D-02 0.317D-01-0.750D-01-0.148D+00
 Coeff-Com:  0.119D+01
 Coeff:     -0.140D-06 0.220D-05 0.520D-05-0.928D-05-0.661D-04 0.308D-03
 Coeff:      0.742D-04-0.216D-02-0.104D-02 0.317D-01-0.750D-01-0.148D+00
 Coeff:      0.119D+01
 Gap=     0.445 Goal=   None    Shift=    0.000
 Gap=     0.393 Goal=   None    Shift=    0.000
 RMSDP=4.53D-09 MaxDP=1.45D-07 DE=-9.09D-13 OVMax= 3.62D-07

 SCF Done:  E(UHF) =  -435.118664982     A.U. after   13 cycles
            NFock= 13  Conv=0.45D-08     -V/T= 2.0028
 <Sx>= 0.0000 <Sy>= 0.0000 <Sz>= 0.5000 <S**2>= 0.7527 S= 0.5013
 <L.S>= 0.000000000000E+00
 KE= 4.338983664563D+02 PE=-1.310157428445D+03 EE= 2.996337387388D+02
 Annihilation of the first spin contaminant:
 S**2 before annihilation     0.7527,   after     0.7500
 Leave Link  502 at Sat Mar  4 13:43:16 2017, MaxMem=   655360000 cpu:         1.7
 (Enter /mnt/software/gaussian/g09/l801.exe)
 Range of M.O.s used for correlation:     1    75
 NBasis=    75 NAE=    21 NBE=    20 NFC=     0 NFV=     0
 NROrb=     75 NOA=    21 NOB=    20 NVA=    54 NVB=    55
 Leave Link  801 at Sat Mar  4 13:43:16 2017, MaxMem=   655360000 cpu:         0.1
 (Enter /mnt/software/gaussian/g09/l1002.exe)
 Minotr:  UHF open shell wavefunction.
          Direct CPHF calculation.
          Differentiating once with respect to electric field.
                with respect to dipole field.
          Electric field/nuclear overlap derivatives assumed to be zero.
          Requested convergence is 1.0D-08 RMS, and 1.0D-07 maximum.
          Secondary convergence is 1.0D-12 RMS, and 1.0D-12 maximum.
          NewPWx=F KeepS1=T KeepF1=T KeepIn=T MapXYZ=F SortEE=F KeepMc=T.
          MDV=     655359806 using IRadAn=       2.
 Keep R1 and R2 ints in memory in canonical form, NReq=8971622.
 FoFCou: FMM=F IPFlag=           0 FMFlag=           0 FMFlg1=           0
         NFxFlg=           0 DoJE=F BraDBF=F KetDBF=F FulRan=T
         wScrn=  0.000000 ICntrl=     600 IOpCl=  0 I1Cent=           0 NGrid=           0
         NMat0=    1 NMatS0=   2850 NMatT0=    0 NMatD0=    1 NMtDS0=    0 NMtDT0=    0
 Symmetry not used in FoFCou.
          Solving linear equations simultaneously, MaxMat=       0.
          There are     3 degrees of freedom in the 1st order CPHF.  IDoFFX=0 NUNeed=     3.
      3 vectors produced by pass  0 Test12= 7.45D-14 3.33D-08 XBig12= 4.58D+00 6.98D-01.
 AX will form     3 AO Fock derivatives at one time.
      3 vectors produced by pass  1 Test12= 7.45D-14 3.33D-08 XBig12= 3.22D-01 8.86D-02.
      3 vectors produced by pass  2 Test12= 7.45D-14 3.33D-08 XBig12= 4.46D-02 7.04D-02.
      3 vectors produced by pass  3 Test12= 7.45D-14 3.33D-08 XBig12= 2.14D-03 1.54D-02.
      3 vectors produced by pass  4 Test12= 7.45D-14 3.33D-08 XBig12= 4.68D-05 1.39D-03.
      3 vectors produced by pass  5 Test12= 7.45D-14 3.33D-08 XBig12= 1.36D-06 3.04D-04.
      3 vectors produced by pass  6 Test12= 7.45D-14 3.33D-08 XBig12= 6.32D-08 8.26D-05.
      3 vectors produced by pass  7 Test12= 7.45D-14 3.33D-08 XBig12= 2.38D-09 2.56D-05.
      3 vectors produced by pass  8 Test12= 7.45D-14 3.33D-08 XBig12= 4.82D-11 1.85D-06.
      3 vectors produced by pass  9 Test12= 7.45D-14 3.33D-08 XBig12= 9.89D-13 2.89D-07.
      3 vectors produced by pass 10 Test12= 7.45D-14 3.33D-08 XBig12= 5.04D-14 1.20D-07.
 InvSVY:  IOpt=1 It=  1 EMax= 2.66D-15
 Solved reduced A of dimension    33 with     3 vectors.
 End of Minotr F.D. properties file   721 does not exist.
 End of Minotr F.D. properties file   722 does not exist.
 End of Minotr F.D. properties file   788 does not exist.
 Leave Link 1002 at Sat Mar  4 13:43:17 2017, MaxMem=   655360000 cpu:         2.5
 (Enter /mnt/software/gaussian/g09/l1101.exe)
 Using compressed storage, NAtomX=     5.
 Will process      6 centers per pass.
 Leave Link 1101 at Sat Mar  4 13:43:17 2017, MaxMem=   655360000 cpu:         0.7
 (Enter /mnt/software/gaussian/g09/l1102.exe)
 Symmetrizing basis deriv contribution to polar:
 IMax=3 JMax=2 DiffMx= 0.00D+00
 Leave Link 1102 at Sat Mar  4 13:43:17 2017, MaxMem=   655360000 cpu:         0.1
 (Enter /mnt/software/gaussian/g09/l1110.exe)
 Forming Gx(P) for the SCF density, NAtomX=     5.
 Integral derivatives from FoFJK, PRISM(SPDF).
 Do as many integral derivatives as possible in FoFJK.
 G2DrvN: MDV=     655359856.
 G2DrvN: will do     6 centers at a time, making    1 passes.
 PxScal for G2LodP:  IOpCl= 1 ISclPx=1 IMOff=     1 NMtTot=     4 NTT=    2850 ScalPx= 1.10D+00
 Calling FoFCou, ICntrl=  3107 FMM=F I1Cent=   0 AccDes= 0.00D+00.
 FoFJK:  IHMeth= 1 ICntrl=    3107 DoSepK=F KAlg= 0 I1Cent=   0 FoldK=F
 IRaf=         0 NMat=   1 IRICut=       1 DoRegI=T DoRafI=F ISym2E= 0.
 FoFCou: FMM=F IPFlag=           0 FMFlag=      100000 FMFlg1=           0
         NFxFlg=           0 DoJE=F BraDBF=F KetDBF=F FulRan=T
         wScrn=  0.000000 ICntrl=    3107 IOpCl=  1 I1Cent=           0 NGrid=           0
         NMat0=    1 NMatS0=      1 NMatT0=    0 NMatD0=    4 NMtDS0=    3 NMtDT0=    0
 Symmetry not used in FoFCou.
 End of G2Drv F.D. properties file   721 does not exist.
 End of G2Drv F.D. properties file   722 does not exist.
 End of G2Drv F.D. properties file   788 does not exist.
 Leave Link 1110 at Sat Mar  4 13:43:17 2017, MaxMem=   655360000 cpu:         2.0
 (Enter /mnt/software/gaussian/g09/l1002.exe)
 Minotr:  UHF open shell wavefunction.
          IDoAtm=11111
          Direct CPHF calculation.
          Differentiating once with respect to electric field.
                with respect to dipole field.
          Differentiating once with respect to nuclear coordinates.
          Requested convergence is 1.0D-08 RMS, and 1.0D-07 maximum.
          Secondary convergence is 1.0D-12 RMS, and 1.0D-12 maximum.
          NewPWx=T KeepS1=F KeepF1=F KeepIn=T MapXYZ=F SortEE=F KeepMc=T.
          MDV=     655359796 using IRadAn=       2.
 Keep R1 and R2 ints in memory in canonical form, NReq=8971737.
 FoFCou: FMM=F IPFlag=           0 FMFlag=           0 FMFlg1=           0
         NFxFlg=           0 DoJE=F BraDBF=F KetDBF=F FulRan=T
         wScrn=  0.000000 ICntrl=     600 IOpCl=  0 I1Cent=           0 NGrid=           0
         NMat0=    1 NMatS0=   2850 NMatT0=    0 NMatD0=    1 NMtDS0=    0 NMtDT0=    0
 Symmetry not used in FoFCou.
          Solving linear equations simultaneously, MaxMat=       0.
          There are    18 degrees of freedom in the 1st order CPHF.  IDoFFX=5 NUNeed=    18.
 Will reuse    3 saved solutions.
     12 vectors produced by pass  0 Test12= 1.24D-14 5.56D-09 XBig12= 1.92D-01 9.22D-02.
 AX will form    12 AO Fock derivatives at one time.
     12 vectors produced by pass  1 Test12= 1.24D-14 5.56D-09 XBig12= 1.63D-02 5.49D-02.
     12 vectors produced by pass  2 Test12= 1.24D-14 5.56D-09 XBig12= 2.32D-03 1.28D-02.
     12 vectors produced by pass  3 Test12= 1.24D-14 5.56D-09 XBig12= 5.43D-05 1.68D-03.
     12 vectors produced by pass  4 Test12= 1.24D-14 5.56D-09 XBig12= 6.86D-07 2.01D-04.
      9 vectors produced by pass  5 Test12= 1.24D-14 5.56D-09 XBig12= 1.09D-08 1.60D-05.
      9 vectors produced by pass  6 Test12= 1.24D-14 5.56D-09 XBig12= 2.05D-10 2.76D-06.
      8 vectors produced by pass  7 Test12= 1.24D-14 5.56D-09 XBig12= 1.69D-12 2.02D-07.
      2 vectors produced by pass  8 Test12= 1.24D-14 5.56D-09 XBig12= 1.06D-14 1.85D-08.
 InvSVY:  IOpt=1 It=  1 EMax= 1.49D-14
 Solved reduced A of dimension    88 with    12 vectors.
 FullF1:  Do perturbations    1 to     3.
 Isotropic polarizability for W=    0.000000       11.85 Bohr**3.
 FullF1:  Do perturbations    1 to     6.
 End of Minotr F.D. properties file   721 does not exist.
 End of Minotr F.D. properties file   722 does not exist.
 End of Minotr F.D. properties file   788 does not exist.
 Leave Link 1002 at Sat Mar  4 13:43:18 2017, MaxMem=   655360000 cpu:         4.4
 (Enter /mnt/software/gaussian/g09/l601.exe)
 Copying SCF densities to generalized density rwf, IOpCl= 1 IROHF=0.

 **********************************************************************

            Population analysis using the SCF density.

 **********************************************************************

 Orbital symmetries:
 Alpha Orbitals:
       Occupied  (A) (A) (A) (A) (A) (A) (A) (A) (A) (A) (A) (A)
                 (A) (A) (A) (A) (A) (A) (A) (A) (A)
       Virtual   (A) (A) (A) (A) (A) (A) (A) (A) (A) (A) (A) (A)
                 (A) (A) (A) (A) (A) (A) (A) (A) (A) (A) (A) (A)
                 (A) (A) (A) (A) (A) (A) (A) (A) (A) (A) (A) (A)
                 (A) (A) (A) (A) (A) (A) (A) (A) (A) (A) (A) (A)
                 (A) (A) (A) (A) (A) (A)
 Beta  Orbitals:
       Occupied  (A) (A) (A) (A) (A) (A) (A) (A) (A) (A) (A) (A)
                 (A) (A) (A) (A) (A) (A) (A) (A)
       Virtual   (A) (A) (A) (A) (A) (A) (A) (A) (A) (A) (A) (A)
                 (A) (A) (A) (A) (A) (A) (A) (A) (A) (A) (A) (A)
                 (A) (A) (A) (A) (A) (A) (A) (A) (A) (A) (A) (A)
                 (A) (A) (A) (A) (A) (A) (A) (A) (A) (A) (A) (A)
                 (A) (A) (A) (A) (A) (A) (A)
 The electronic state is 2-A.
 Alpha  occ. eigenvalues --  -26.75238 -26.74198 -26.73910 -26.44113 -11.96913
 Alpha  occ. eigenvalues --   -2.15621  -2.04808  -2.03351  -1.69494  -1.32327
 Alpha  occ. eigenvalues --   -1.22479  -1.22309  -1.17310  -1.06560  -1.06323
 Alpha  occ. eigenvalues --   -1.03386  -1.02753  -1.01417  -0.86318  -0.75530
 Alpha  occ. eigenvalues --   -0.75526
 Alpha virt. eigenvalues --   -0.31015   0.11499   0.11816   0.12813   0.32704
 Alpha virt. eigenvalues --    0.37065   0.38439   0.41013   1.00675   1.01646
 Alpha virt. eigenvalues --    1.02794   1.03063   1.05702   1.06145   1.27607
 Alpha virt. eigenvalues --    1.28194   1.28717   1.31004   1.31637   1.31871
 Alpha virt. eigenvalues --    1.32499   1.39331   1.39342   1.42351   1.61602
 Alpha virt. eigenvalues --    1.62571   1.74149   1.74410   1.78026   1.80856
 Alpha virt. eigenvalues --    1.81757   1.82020   2.00046   2.00608   2.01415
 Alpha virt. eigenvalues --    2.01771   2.01776   2.03805   2.07187   2.07187
 Alpha virt. eigenvalues --    2.09116   2.47635   2.50541   2.51390   2.82419
 Alpha virt. eigenvalues --    2.84005   3.11230   3.12321   3.14745   3.65851
 Alpha virt. eigenvalues --    4.19959   4.39356   4.43104   4.73685
  Beta  occ. eigenvalues --  -26.75238 -26.74198 -26.73910 -26.39338 -11.96913
  Beta  occ. eigenvalues --   -2.15621  -2.04808  -2.03351  -1.50303  -1.32327
  Beta  occ. eigenvalues --   -1.22479  -1.22309  -1.17310  -1.06560  -1.06323
  Beta  occ. eigenvalues --   -1.03386  -1.02753  -1.01417  -0.70366  -0.70361
  Beta virt. eigenvalues --   -0.31015   0.05366   0.11499   0.11816   0.12813
  Beta virt. eigenvalues --    0.32704   0.37065   0.38439   0.41013   1.00675
  Beta virt. eigenvalues --    1.01646   1.03063   1.05702   1.06024   1.06145
  Beta virt. eigenvalues --    1.27607   1.28194   1.28717   1.31004   1.31637
  Beta virt. eigenvalues --    1.31871   1.41857   1.41867   1.42351   1.54849
  Beta virt. eigenvalues --    1.61602   1.62571   1.74149   1.74410   1.78026
  Beta virt. eigenvalues --    1.80856   1.81757   1.82020   2.00608   2.01415
  Beta virt. eigenvalues --    2.03805   2.07861   2.07861   2.09116   2.10652
  Beta virt. eigenvalues --    2.10658   2.11756   2.47635   2.50541   2.51390
  Beta virt. eigenvalues --    2.82419   2.84005   3.11230   3.12321   3.14745
  Beta virt. eigenvalues --    3.70150   4.19959   4.39356   4.43104   4.73685
          Condensed to atoms (all electrons):
               1          2          3          4          5
     1  C    3.527509   0.391488   0.405777   0.000000   0.388665
     2  F    0.391488   8.786911  -0.037938   0.000000  -0.037346
     3  F    0.405777  -0.037938   8.745690   0.000000  -0.038799
     4  F    0.000000   0.000000   0.000000   9.000000   0.000000
     5  F    0.388665  -0.037346  -0.038799   0.000000   8.796195
          Atomic-Atomic Spin Densities.
               1          2          3          4          5
     1  C    0.000000   0.000000   0.000000   0.000000   0.000000
     2  F    0.000000   0.000000   0.000000   0.000000   0.000000
     3  F    0.000000   0.000000   0.000000   0.000000   0.000000
     4  F    0.000000   0.000000   0.000000   1.000000   0.000000
     5  F    0.000000   0.000000   0.000000   0.000000   0.000000
 Mulliken charges and spin densities:
               1          2
     1  C    1.286561   0.000000
     2  F   -0.103115   0.000000
     3  F   -0.074730   0.000000
     4  F    0.000000   1.000000
     5  F   -0.108716   0.000000
 Sum of Mulliken charges =   1.00000   1.00000
 Mulliken charges and spin densities with hydrogens summed into heavy atoms:
               1          2
     1  C    1.286561   0.000000
     2  F   -0.103115   0.000000
     3  F   -0.074730   0.000000
     4  F    0.000000   1.000000
     5  F   -0.108716   0.000000
 APT charges:
               1
     1  C    1.981372
     2  F   -0.324391
     3  F   -0.333669
     4  F    0.000002
     5  F   -0.323314
 Sum of APT charges =   1.00000
 APT charges with hydrogens summed into heavy atoms:
               1
     1  C    1.981372
     2  F   -0.324391
     3  F   -0.333669
     4  F    0.000002
     5  F   -0.323314
 Electronic spatial extent (au):  <R**2>=           4816.2489
 Charge=              1.0000 electrons
 Dipole moment (field-independent basis, Debye):
    X=            -12.3277    Y=              0.0112    Z=             -0.3437  Tot=             12.3325
 Quadrupole moment (field-independent basis, Debye-Ang):
   XX=             11.1105   YY=            -21.1355   ZZ=            -20.4559
   XY=             -0.0390   XZ=              0.6613   YZ=             -0.3799
 Traceless Quadrupole moment (field-independent basis, Debye-Ang):
   XX=             21.2708   YY=            -10.9752   ZZ=            -10.2956
   XY=             -0.0390   XZ=              0.6613   YZ=             -0.3799
 Octapole moment (field-independent basis, Debye-Ang**2):
  XXX=            -90.2212  YYY=              0.3096  ZZZ=              1.3368  XYY=             -0.7590
  XXY=              0.1642  XXZ=             -1.4182  XZZ=              4.4315  YZZ=             -0.2211
  YYZ=             -0.3945  XYZ=             -3.7981
 Hexadecapole moment (field-independent basis, Debye-Ang**3):
 XXXX=          -3801.0825 YYYY=            -67.5805 ZZZZ=            -59.1479 XXXY=              0.7681
 XXXZ=              1.7026 YYYX=             -1.1065 YYYZ=             -0.1215 ZZZX=             -4.3213
 ZZZY=             -0.3887 XXYY=           -663.2290 XXZZ=           -610.8545 YYZZ=            -21.5699
 XXYZ=            -39.9122 YYXZ=              1.8564 ZZXY=              1.2387
 N-N= 1.415066582678D+02 E-N=-1.310157428476D+03  KE= 4.338983664563D+02
  Exact polarizability:   9.808   0.026  13.111   1.165  -0.083  12.630
 Approx polarizability:   9.869   0.020  12.164   0.828  -0.083  11.827
                          Isotropic Fermi Contact Couplings
        Atom                 a.u.       MegaHertz       Gauss      10(-4) cm-1
     1  C(13)              0.00000       0.00000       0.00000       0.00000
     2  F(19)              0.00000       0.00000       0.00000       0.00000
     3  F(19)              0.00000       0.00000       0.00000       0.00000
     4  F(19)              0.06932     291.64278     104.06539      97.28156
     5  F(19)              0.00000       0.00000       0.00000       0.00000
 --------------------------------------------------------
       Center         ----  Spin Dipole Couplings  ----
                      3XX-RR        3YY-RR        3ZZ-RR
 --------------------------------------------------------
     1   Atom        0.000125     -0.000063     -0.000062
     2   Atom        0.000111     -0.000055     -0.000056
     3   Atom        0.000125     -0.000063     -0.000061
     4   Atom       -2.911333     -0.973384      3.884717
     5   Atom        0.000108     -0.000054     -0.000054
 --------------------------------------------------------
                        XY            XZ            YZ
 --------------------------------------------------------
     1   Atom        0.000000      0.000000      0.000000
     2   Atom       -0.000014      0.000004      0.000000
     3   Atom        0.000002     -0.000017      0.000000
     4   Atom        0.026286     -0.049220     -3.629564
     5   Atom        0.000011      0.000007      0.000000
 --------------------------------------------------------


 ---------------------------------------------------------------------------------
              Anisotropic Spin Dipole Couplings in Principal Axis System
 ---------------------------------------------------------------------------------

       Atom             a.u.   MegaHertz   Gauss  10(-4) cm-1        Axes

              Baa    -0.0001    -0.008    -0.003    -0.003 -0.0004  0.8821  0.4711
     1 C(13)  Bbb    -0.0001    -0.008    -0.003    -0.003 -0.0011 -0.4711  0.8821
              Bcc     0.0001     0.017     0.006     0.006  1.0000 -0.0001  0.0012
 
              Baa    -0.0001    -0.028    -0.010    -0.009  0.0594  0.8804  0.4706
     2 F(19)  Bbb    -0.0001    -0.028    -0.010    -0.009 -0.0607 -0.4673  0.8820
              Bcc     0.0001     0.056     0.020     0.019  0.9964 -0.0810  0.0257
 
              Baa    -0.0001    -0.032    -0.011    -0.011  0.0327  0.8815  0.4710
     3 F(19)  Bbb    -0.0001    -0.032    -0.011    -0.011  0.0849 -0.4720  0.8775
              Bcc     0.0001     0.063     0.023     0.021  0.9959  0.0113 -0.0903
 
              Baa    -2.9117 -1462.338  -521.799  -487.783 -0.0013  0.8821  0.4711
     4 F(19)  Bbb    -2.9117 -1462.325  -521.794  -487.779  1.0000 -0.0019  0.0062
              Bcc     5.8234  2924.663  1043.592   975.563 -0.0064 -0.4711  0.8821
 
              Baa    -0.0001    -0.028    -0.010    -0.009 -0.0817  0.8794  0.4690
     5 F(19)  Bbb    -0.0001    -0.027    -0.010    -0.009 -0.0056 -0.4710  0.8821
              Bcc     0.0001     0.055     0.020     0.018  0.9966  0.0694  0.0434
 

 ---------------------------------------------------------------------------------

 No NMR shielding tensors so no spin-rotation constants.
 Leave Link  601 at Sat Mar  4 13:43:18 2017, MaxMem=   655360000 cpu:         1.4
 (Enter /mnt/software/gaussian/g09/l701.exe)
 Compute integral second derivatives.
 ... and contract with generalized density number  0.
 Entering OneElI...
 Calculate overlap and kinetic energy integrals
    NBasis =  75  MinDer = 2  MaxDer = 2
 Requested accuracy = 0.1000D-12
 PrsmSu:  NPrtUS=   6 ThrOK=T IAlg=1 NPAlg=1 LenDen=           0.
 Prism:   IPart=     0 DynPar=F LinDyn=F Incr=           1.
 PRISM was handed   109212905 working-precision words and   146 shell-pairs
 PRISM was handed   109212905 working-precision words and   146 shell-pairs
 PRISM was handed   109212905 working-precision words and   146 shell-pairs
 PRISM was handed   109212905 working-precision words and   146 shell-pairs
 PRISM was handed   109212905 working-precision words and   146 shell-pairs
 PRISM was handed   109212905 working-precision words and   146 shell-pairs
 IPart=  4 NShTot=          23 NBatch=          11 AvBLen=         2.1
 IPart=  1 NShTot=          29 NBatch=          15 AvBLen=         1.9
 IPart=  3 NShTot=          23 NBatch=          11 AvBLen=         2.1
 IPart=  2 NShTot=          27 NBatch=          15 AvBLen=         1.8
 IPart=  5 NShTot=          15 NBatch=          10 AvBLen=         1.5
 IPart=  0 NShTot=          29 NBatch=          15 AvBLen=         1.9
 PrSmSu:  NxtVal=              7.
 Entering OneElI...
 Calculate potential energy integrals
    NBasis =  75  MinDer = 2  MaxDer = 2
 Requested accuracy = 0.1000D-12
 PrsmSu:  NPrtUS=   6 ThrOK=T IAlg=1 NPAlg=1 LenDen=           0.
 Prism:   IPart=     0 DynPar=F LinDyn=F Incr=           1.
 PRISM was handed   109214643 working-precision words and   143 shell-pairs
 PRISM was handed   109214643 working-precision words and   143 shell-pairs
 PRISM was handed   109214643 working-precision words and   143 shell-pairs
 PRISM was handed   109214643 working-precision words and   143 shell-pairs
 PRISM was handed   109214643 working-precision words and   143 shell-pairs
 PRISM was handed   109214643 working-precision words and   143 shell-pairs
 IPart=  4 NShTot=         120 NBatch=          24 AvBLen=         5.0
 IPart=  2 NShTot=         125 NBatch=          25 AvBLen=         5.0
 IPart=  0 NShTot=         140 NBatch=          28 AvBLen=         5.0
 IPart=  5 NShTot=          75 NBatch=          15 AvBLen=         5.0
 IPart=  3 NShTot=         120 NBatch=          24 AvBLen=         5.0
 IPart=  1 NShTot=         135 NBatch=          27 AvBLen=         5.0
 PrSmSu:  NxtVal=              7.
 Polarizability after L701:
                1             2             3 
      1  0.980812D+01
      2  0.259658D-01  0.131110D+02
      3  0.116494D+01 -0.826549D-01  0.126302D+02
 Dipole Derivatives after L701:
                 1             2             3             4             5 
      1   0.136119D+01  0.101413D-02  0.349762D+00 -0.127257D+00  0.425654D-01
      2   0.708205D-03  0.233049D+01 -0.953990D-02  0.215861D+00 -0.602835D+00
      3   0.338542D+00 -0.104560D-01  0.225244D+01 -0.127654D+00  0.158777D+00
                 6             7             8             9            10 
      1  -0.519902D-01 -0.791539D-01  0.204043D-01 -0.223661D+00 -0.206305D-03
      2   0.887546D-01 -0.424598D-02 -0.227603D+00  0.663176D-01  0.000000D+00
      3  -0.243082D+00 -0.169975D-01  0.583708D-01 -0.694250D+00 -0.102041D-05
                11            12            13            14            15 
      1   0.000000D+00  0.000000D+00 -0.154574D+00 -0.639838D-01 -0.741108D-01
      2   0.103853D-03 -0.250462D-05 -0.212324D+00 -0.500156D+00 -0.145530D+00
      3  -0.270172D-05  0.107597D-03 -0.193890D+00 -0.206689D+00 -0.315211D+00
 Hessian after L701:
                1             2             3             4             5 
      1  0.319704D+02
      2 -0.220838D-01  0.163581D+02
      3 -0.555029D+01  0.219104D+00  0.177355D+02
      4 -0.986610D+01 -0.521721D+01  0.159497D+01  0.114134D+02
      5 -0.574598D+01 -0.429745D+00 -0.318192D+01  0.574118D+01 -0.151692D+01
      6  0.183490D+01 -0.337659D+01 -0.111118D+02 -0.223364D+01  0.427280D+01
      7 -0.134014D+02 -0.689142D-01  0.761831D+00 -0.648600D+00 -0.347708D+00
      8  0.636163D-02 -0.126152D+02 -0.191233D+01 -0.435996D+00  0.146561D+00
      9  0.152418D+00 -0.188838D+01  0.237148D+01  0.718224D+00 -0.151610D+01
     10 -0.439709D-03 -0.750185D-05  0.253894D-02  0.116653D-01 -0.583206D-02
     11  0.000000D+00 -0.314617D-02  0.752834D-05 -0.122054D-02 -0.424765D-02
     12 -0.177532D-03  0.783289D-05 -0.310933D-02  0.418232D-03 -0.123847D-03
     13 -0.870249D+01  0.530822D+01  0.319096D+01 -0.910335D+00  0.358332D+00
     14  0.576170D+01 -0.331008D+01  0.487514D+01 -0.867563D-01  0.180435D+01
     15  0.356315D+01  0.504586D+01 -0.899211D+01 -0.799673D-01  0.425348D+00
                6             7             8             9            10 
      6  0.112931D+02
      7  0.434444D+00  0.146220D+02
      8 -0.110794D+01  0.154005D+00  0.129492D+02
      9  0.633179D+00 -0.178852D+01  0.223167D+01 -0.417321D+01
     10  0.155575D-02  0.104604D-01  0.909459D-03 -0.729808D-02 -0.335304D-01
     11 -0.900935D-04  0.177019D-03 -0.512649D-02 -0.520651D-04  0.220695D-05
     12 -0.453146D-02 -0.137489D-02 -0.494270D-04 -0.474259D-02  0.451789D-03
     13 -0.372568D-01 -0.582405D+00  0.274719D+00  0.925179D+00  0.118443D-01
     14  0.211824D+00  0.262440D+00 -0.475490D+00  0.117286D+01  0.492790D-02
     15 -0.809950D+00  0.593623D+00  0.788648D+00  0.117329D+01  0.275161D-02
               11            12            13            14            15 
     11  0.167655D-01
     12  0.197305D-05  0.167647D-01
     13  0.104138D-02  0.682397D-03  0.101834D+02
     14 -0.424520D-02  0.163468D-03 -0.594231D+01  0.198546D+01
     15  0.132657D-03 -0.438137D-02 -0.407956D+01 -0.625999D+01  0.863315D+01
 Leave Link  701 at Sat Mar  4 13:43:19 2017, MaxMem=   655360000 cpu:         1.1
 (Enter /mnt/software/gaussian/g09/l702.exe)
 L702 exits ... SP integral derivatives will be done elsewhere.
 Leave Link  702 at Sat Mar  4 13:43:19 2017, MaxMem=   655360000 cpu:         0.1
 (Enter /mnt/software/gaussian/g09/l703.exe)
 Compute integral second derivatives, UseDBF=F ICtDFT=           0.
 Integral derivatives from FoFJK, PRISM(SPDF).
 ICntrl=    100127.
 Calling FoFJK, ICntrl=    100127 FMM=F ISym2X=0 I1Cent= 0 IOpClX= 1 NMat=1 NMatS=1 NMatT=0.
 FoFJK:  IHMeth= 1 ICntrl=  100127 DoSepK=F KAlg= 0 I1Cent=   0 FoldK=F
 IRaf=         0 NMat=   1 IRICut=       1 DoRegI=T DoRafI=F ISym2E= 0.
 FoFCou: FMM=F IPFlag=           0 FMFlag=      100000 FMFlg1=         800
         NFxFlg=           0 DoJE=F BraDBF=F KetDBF=F FulRan=T
         wScrn=  0.000000 ICntrl=  100127 IOpCl=  1 I1Cent=           0 NGrid=           0
         NMat0=    1 NMatS0=      1 NMatT0=    0 NMatD0=    1 NMtDS0=    0 NMtDT0=    0
 Symmetry not used in FoFCou.
 FoFCou:  KetSym=F NOpSet=  1 NOpAb=1 NOp=  1.
 FoFCou:  CnvScl= 1.00D+00 Thresh= 1.00D-10 IAcrcy=      10.
 PrismS was handed   655323672 working-precision words and   143 shell-pairs
 FoFCou: LinMIO=F DoNuc=F BraDBF=F KetDBF=F HaveP=T PDBF=F HaveZ=T HaveW=F
         NIJTC =       6 NIJTAt=       0 NIJTCD=       0 NIJTT =       6
         IJTBeg=       1 IJTEnd=       6 KLTBeg=       1 KLTEnd=       6
         IPTBeg=       1 IPTEnd=       6 IPTBCv=       1 IPTECv=       6
         IZTBeg=       1 IZTEnd=       6 IZTBCv=       1 IZTECv=       6
         IWTBeg=       7 IWTEnd=       6 IWTBCv=       7 IWTECv=       6
         INTBeg=       1 INTEnd=       0 IFTBCv=       1 IFTECv=       6
 NCel replicated for PrismC:     1
 CoulSu:  IncDef=  1024 NBBP=          10296 NTPThr=   100 NPartT=    6 Incr=          17 LDynOK=F.
 CoulSu:  NPrtUS=   6 ThrOK=T IAlg=1 NPAlg=1 LenDen=           0 LWGrdD=           0 DoCopy=F.
 Enter PrismC: JobTyp=22 DoJE=F Cont=F.
 PrismC:  IPart=     0 DynPar=F LinDyn=F Incr=          17 UseFst=F UseS4=T IGathr=2.
 PrismC was handed   109213320 working-precision words and   143 shell-pairs
 Enter PrismC: JobTyp=22 DoJE=F Cont=F.
 PrismC was handed   109213320 working-precision words and   143 shell-pairs
 Enter PrismC: JobTyp=22 DoJE=F Cont=F.
 Enter PrismC: JobTyp=22 DoJE=F Cont=F.
 PrismC was handed   109213320 working-precision words and   143 shell-pairs
 Enter PrismC: JobTyp=22 DoJE=F Cont=F.
 PrismC was handed   109213320 working-precision words and   143 shell-pairs
 PrismC was handed   109213320 working-precision words and   143 shell-pairs
 Enter PrismC: JobTyp=22 DoJE=F Cont=F.
 PrismC was handed   109213320 working-precision words and   143 shell-pairs
 IPart=  2 NShTot=        1669 NShNF=        1669 NShFF=           0 NBatch=         167 AvBLen=        10.0
 IPart=  5 NShTot=        1668 NShNF=        1668 NShFF=           0 NBatch=         162 AvBLen=        10.3
 IPart=  4 NShTot=        1661 NShNF=        1661 NShFF=           0 NBatch=         165 AvBLen=        10.1
 IPart=  1 NShTot=        1646 NShNF=        1646 NShFF=           0 NBatch=         166 AvBLen=         9.9
 IPart=  0 NShTot=        1784 NShNF=        1784 NShFF=           0 NBatch=         172 AvBLen=        10.4
 IPart=  3 NShTot=        1672 NShNF=        1672 NShFF=           0 NBatch=         165 AvBLen=        10.1
 CoulSu:  NxtVal=            103.
 Polarizability after L703:
                1             2             3 
      1  0.980812D+01
      2  0.259658D-01  0.131110D+02
      3  0.116494D+01 -0.826549D-01  0.126302D+02
 Dipole Derivatives after L703:
                 1             2             3             4             5 
      1   0.136119D+01  0.101413D-02  0.349762D+00 -0.127257D+00  0.425654D-01
      2   0.708205D-03  0.233049D+01 -0.953990D-02  0.215861D+00 -0.602835D+00
      3   0.338542D+00 -0.104560D-01  0.225244D+01 -0.127654D+00  0.158777D+00
                 6             7             8             9            10 
      1  -0.519902D-01 -0.791539D-01  0.204043D-01 -0.223661D+00 -0.206305D-03
      2   0.887546D-01 -0.424598D-02 -0.227603D+00  0.663176D-01  0.000000D+00
      3  -0.243082D+00 -0.169975D-01  0.583708D-01 -0.694250D+00 -0.102041D-05
                11            12            13            14            15 
      1   0.000000D+00  0.000000D+00 -0.154574D+00 -0.639838D-01 -0.741108D-01
      2   0.103853D-03 -0.250462D-05 -0.212324D+00 -0.500156D+00 -0.145530D+00
      3  -0.270172D-05  0.107597D-03 -0.193890D+00 -0.206689D+00 -0.315211D+00
 Hessian after L703:
                1             2             3             4             5 
      1  0.383609D+00
      2 -0.619481D-02  0.838327D+00
      3  0.164425D+00 -0.231197D-01  0.901112D+00
      4 -0.137184D+00  0.123009D+00 -0.466681D-01  0.957552D-01
      5  0.935176D-01 -0.402391D+00  0.937242D-01 -0.128209D+00  0.528349D+00
      6 -0.346697D-01  0.832072D-01 -0.142328D+00  0.681058D-01 -0.138442D+00
      7 -0.911559D-01  0.356107D-02 -0.348060D-01  0.179931D-01  0.288783D-01
      8  0.723887D-02 -0.117938D+00  0.572619D-01  0.227465D-01 -0.214426D-01
      9 -0.666771D-01  0.584307D-01 -0.567255D+00 -0.185606D-01  0.567696D-01
     10  0.000000D+00  0.000000D+00  0.000000D+00  0.000000D+00  0.000000D+00
     11  0.000000D+00  0.000000D+00  0.000000D+00  0.000000D+00  0.000000D+00
     12  0.000000D+00  0.000000D+00  0.000000D+00  0.000000D+00  0.000000D+00
     13 -0.155269D+00 -0.120375D+00 -0.829505D-01  0.234361D-01  0.581355D-02
     14 -0.945616D-01 -0.317998D+00 -0.127867D+00 -0.175456D-01 -0.104516D+00
     15 -0.630778D-01 -0.118518D+00 -0.191528D+00 -0.287702D-02 -0.120514D-01
                6             7             8             9            10 
      6  0.163261D+00
      7 -0.331074D-01  0.595049D-01
      8  0.751339D-01 -0.107301D-01  0.128900D+00
      9 -0.510304D-01  0.113790D+00 -0.751235D-01  0.697988D+00
     10  0.000000D+00  0.000000D+00  0.000000D+00  0.000000D+00  0.000000D+00
     11  0.000000D+00  0.000000D+00  0.000000D+00  0.000000D+00  0.000000D+00
     12  0.000000D+00  0.000000D+00  0.000000D+00  0.000000D+00  0.000000D+00
     13 -0.328649D-03  0.136580D-01 -0.192553D-01 -0.285524D-01  0.000000D+00
     14 -0.198987D-01 -0.217093D-01  0.104803D-01 -0.400767D-01  0.000000D+00
     15  0.300967D-01 -0.458767D-01 -0.572722D-01 -0.797022D-01  0.000000D+00
               11            12            13            14            15 
     11  0.000000D+00
     12  0.000000D+00  0.000000D+00
     13  0.000000D+00  0.000000D+00  0.118175D+00
     14  0.000000D+00  0.000000D+00  0.133817D+00  0.412034D+00
     15  0.000000D+00  0.000000D+00  0.111832D+00  0.187842D+00  0.241133D+00
 Leave Link  703 at Sat Mar  4 13:43:19 2017, MaxMem=   655360000 cpu:         3.8
 (Enter /mnt/software/gaussian/g09/l716.exe)
 FrcOut:
 IF    =    42 IFX   =    57 IFXYZ =    72
 IFFX  =    87 IFFFX =   207 IFLen =    15
 IFFLen=   120 IFFFLn=     0 IEDerv=   207
 LEDerv=   773 IFroze=  1169 ICStrt= 12633
 Dipole        =-4.85010883D+00 4.39377662D-03-1.35222897D-01
 DipoleDeriv   = 1.36119128D+00 7.08204692D-04 3.38542335D-01
                 1.01413484D-03 2.33048988D+00-1.04559975D-02
                 3.49762358D-01-9.53990363D-03 2.25243607D+00
                -1.27257060D-01 2.15861317D-01-1.27653773D-01
                 4.25654253D-02-6.02834573D-01 1.58777133D-01
                -5.19902395D-02 8.87545728D-02-2.43082418D-01
                -7.91539254D-02-4.24597895D-03-1.69975329D-02
                 2.04042536D-02-2.27603037D-01 5.83708144D-02
                -2.23660545D-01 6.63175981D-02-6.94250384D-01
                -2.06305024D-04 3.75388632D-08-1.02041407D-06
                 3.42375146D-08 1.03853201D-04-2.70171570D-06
                -7.96651367D-07-2.50462316D-06 1.07596689D-04
                -1.54573986D-01-2.12323580D-01-1.93890008D-01
                -6.39838479D-02-5.00156127D-01-2.06689248D-01
                -7.41107765D-02-1.45529763D-01-3.15210861D-01
 Polarizability= 9.80811647D+00 2.59658465D-02 1.31110297D+01
                 1.16493965D+00-8.26549434D-02 1.26301656D+01
 PolarDeriv    = 3.88982433D+00 4.38668874D-02 2.06510772D+00
                -1.67302671D-02 7.50766099D-02 1.45604563D+00
                 3.66249574D-02 2.05568810D+00-1.81072531D-01
                 6.66587021D-02-1.37982663D-01 1.56834842D-01
                -1.41436797D-01 6.51074548D-02-1.91725881D-01
                 1.51176634D+00 1.59506682D-01-2.00240296D+00
                -1.70966023D+00 1.44551551D+00-9.16656712D-01
                -4.83398611D-01 1.55786073D-01-7.51424156D-01
                 8.58103845D-01-1.12953064D+00 4.96961060D+00
                 3.24733175D-01-5.64748053D-01 9.87056735D-01
                -1.74537113D-01 3.34228815D-01-4.24358914D-01
                -7.15840165D-01 1.59116286D+00-1.24952622D+00
                -1.30442654D-01-1.60331661D-01-1.46992639D-01
                 1.36610875D+00-2.86175496D-02 2.16388204D-01
                -6.30768128D-02 2.60858709D-01-6.03477613D-01
                 2.04505612D-02 1.73162633D+00-2.55068984D-01
                 7.62289353D-01 3.02723850D-02 1.34291598D+00
                 2.48828701D-01-3.05277492D-01 5.44042347D+00
                -3.69954672D-04 7.33881151D-06 2.30611329D-04
                -1.74423056D-05 1.71262323D-05 2.07776201D-04
                -1.53284968D-05-2.96316658D-04-1.08192164D-06
                 9.50542264D-04 9.33918772D-06 1.43501455D-05
                 5.33058167D-05 9.49085905D-04 6.56870894D-07
                -1.56572415D-03 9.26738569D-06-1.08111624D-05
                -2.04935149D+00-1.32905808D+00-1.00168898D+00
                -8.65962425D-01-2.02262259D-01-9.21217455D-01
                -8.31636661D-01-1.18671986D+00-4.18505937D+00
                -4.12792980D-01-1.02890495D+00-8.88836944D-01
                -4.46368749D-01-4.30557741D-01-7.26831842D-01
                -1.04318915D+00-1.44540131D+00-2.18848349D+00
 HyperPolar    = 9.16032660D+00 4.00675358D-01 1.02859070D+01
                -2.67462754D+00 2.07705984D+00 1.43772916D+00
                 3.35800829D+00 3.06649682D+00 2.27761044D+00
                -1.29556398D+01
 VibFq2-Diag1:  N=     15 IV=           6 MDV=   655346161 NE2=    43689743
 Full mass-weighted force constant matrix:
 Low frequencies ---   -0.9028    0.0010    0.0016    0.0017    0.4451    0.6758
 Low frequencies ---   91.1234  113.2468  158.7224
 OrtVCM:  Ph=1 IPass= 1 DotMx1= 0.00D+00
 OrtVCM:  IS=    1 I=    1 IndO=    1 Dot= 1.00D+00 DotN= 1.00D+00 ElMax1= 4.65D-01 ElMax1N= 4.65D-01
 OrtVCM:  Ph=2 NNew=    0 IAdd=    2 IPass= 1 DotMx2= 0.00D+00
 OrtVCM:  IS=    1 I=    2 IndO=    2 Dot= 1.00D+00 DotN= 1.00D+00 ElMax1= 4.65D-01 ElMax1N= 4.65D-01
 OrtVCM:  Ph=2 NNew=    0 IAdd=    3 IPass= 1 DotMx2= 0.00D+00
 OrtVCM:  IS=    1 I=    3 IndO=    3 Dot= 1.00D+00 DotN= 1.00D+00 ElMax1= 4.65D-01 ElMax1N= 4.65D-01
 OrtVCM:  Ph=2 NNew=    0 IAdd=    4 IPass= 1 DotMx2= 5.55D-17
 OrtVCM:  IS=    1 I=    4 IndO=    4 Dot= 1.00D+00 DotN= 1.00D+00 ElMax1= 5.66D-01 ElMax1N= 5.66D-01
 OrtVCM:  Ph=2 NNew=    0 IAdd=    5 IPass= 1 DotMx2= 4.06D-16
 OrtVCM:  IS=    1 I=    5 IndO=    5 Dot= 1.00D+00 DotN= 1.00D+00 ElMax1= 8.79D-01 ElMax1N= 8.79D-01
 OrtVCM:  Ph=2 NNew=    0 IAdd=    6 IPass= 1 DotMx2= 5.55D-17
 OrtVCM:  IS=    1 I=    6 IndO=    6 Dot= 1.00D+00 DotN= 1.00D+00 ElMax1= 8.78D-01 ElMax1N= 8.78D-01
 OrtVCM:  Ph=1 IPass= 1 DotMx1= 5.66D-01
 OrtVCM:  Ph=1 IPass= 2 DotMx1= 8.33D-17
 OrtVCM:  IS=    1 I=    1 IndO=    7 Dot= 8.64D-01 DotN= 8.64D-01 ElMax1= 8.64D-01 ElMax1N= 8.64D-01
 OrtVCM:  Ph=2 NNew=    0 IAdd=    2 IPass= 1 DotMx2= 1.14D-05
 OrtVCM:  Ph=2 NNew=    0 IAdd=    2 IPass= 2 DotMx2= 5.17D-19
 OrtVCM:  IS=    1 I=    2 IndO=    8 Dot= 8.32D-01 DotN= 8.32D-01 ElMax1= 8.32D-01 ElMax1N= 8.32D-01
 OrtVCM:  Ph=2 NNew=    0 IAdd=    3 IPass= 1 DotMx2= 8.11D-04
 OrtVCM:  Ph=2 NNew=    0 IAdd=    3 IPass= 2 DotMx2= 4.34D-19
 OrtVCM:  IS=    1 I=    3 IndO=    9 Dot= 8.33D-01 DotN= 8.33D-01 ElMax1= 8.33D-01 ElMax1N= 8.33D-01
 OrtVCM:  Ph=2 NNew=    0 IAdd=    4 IPass= 1 DotMx2= 1.85D-01
 OrtVCM:  Ph=2 NNew=    0 IAdd=    4 IPass= 2 DotMx2= 3.84D-17
 OrtVCM:  IS=    1 I=    4 IndO=   10 Dot= 7.40D-01 DotN= 7.40D-01 ElMax1= 7.40D-01 ElMax1N= 7.40D-01
 OrtVCM:  Ph=2 NNew=    0 IAdd=    5 IPass= 1 DotMx2= 2.43D-01
 OrtVCM:  Ph=2 NNew=    0 IAdd=    5 IPass= 2 DotMx2= 1.04D-17
 OrtVCM:  IS=    1 I=    5 IndO=   11 Dot= 6.17D-01 DotN= 6.17D-01 ElMax1= 6.17D-01 ElMax1N= 6.17D-01
 OrtVCM:  Ph=2 NNew=    0 IAdd=    6 IPass= 1 DotMx2= 2.38D-01
 OrtVCM:  Ph=2 NNew=    0 IAdd=    6 IPass= 2 DotMx2= 4.16D-17
 OrtVCM:  IS=    1 I=    6 IndO=   12 Dot= 3.36D-01 DotN= 3.36D-01 ElMax1= 3.36D-01 ElMax1N= 3.36D-01
 OrtVCM:  Ph=2 NNew=    0 IAdd=    7 IPass= 1 DotMx2= 2.85D-01
 OrtVCM:  Ph=2 NNew=    0 IAdd=    7 IPass= 2 DotMx2= 1.25D-16
 OrtVCM:  IS=    1 I=    7 IndO=   13 Dot= 6.57D-01 DotN= 6.57D-01 ElMax1= 6.57D-01 ElMax1N= 6.57D-01
 OrtVCM:  Ph=2 NNew=    0 IAdd=    8 IPass= 1 DotMx2= 4.66D-01
 OrtVCM:  Ph=2 NNew=    0 IAdd=    8 IPass= 2 DotMx2= 8.21D-17
 OrtVCM:  IS=    1 I=    8 IndO=   14 Dot= 8.25D-02 DotN= 8.25D-02 ElMax1= 1.91D-01 ElMax1N= 1.91D-01
 OrtVCM:  Ph=2 NNew=    0 IAdd=    9 IPass= 1 DotMx2= 6.64D-01
 OrtVCM:  Ph=2 NNew=    0 IAdd=    9 IPass= 2 DotMx2= 9.85D-17
 OrtVCM:  IS=    1 I=    9 IndO=    0 Dot= 6.65D-33 DotN= 6.65D-33 ElMax1= 5.61D-17 ElMax1N= 5.61D-17
 SchOr2:  IPass= 1 Test2A= 1.00D-01 IOff=     0 NDo=     9 NNew=     8
 OrtVCM:  Ph=1 IPass= 1 DotMx1= 4.65D-01
 OrtVCM:  Ph=1 IPass= 2 DotMx1= 8.33D-17
 OrtVCM:  IS=    1 I=    1 IndO=   15 Dot= 4.97D-01 DotN= 4.97D-01 ElMax1= 4.97D-01 ElMax1N= 4.97D-01
 SchOr2:  IPass= 1 Test2A= 1.00D-01 IOff=     9 NDo=     1 NNew=     1
 VibFq2-Diag2:  N=      9 IV=           6 MDV=   655346161 NE2=    72816239
 ******    1 imaginary frequencies (negative Signs) ****** 
 Dipole derivatives wrt mode   1: -1.74829D+00  1.21384D-04  8.16968D-03
 Polarizability derivatives wrt mode          1
                 1             2             3 
      1  -0.270819D-04  0.000000D+00  0.000000D+00
      2   0.000000D+00  0.165816D-04  0.123705D-05
      3   0.000000D+00  0.123705D-05  0.147688D-04
 Vibrational polarizability contributions from mode   1  100922.6361704       0.0004865       2.2037994
 IFr=  0 A012= 0.27D-10 0.11D-07 0.18D-08 Act= 0.13D-07 DepolP= 0.74D+00 DepolU= 0.85D+00
 Dipole derivatives wrt mode   2: -2.00212D-01  9.13846D-02 -5.46653D-01
 Polarizability derivatives wrt mode          2
                 1             2             3 
      1   0.537709D-01 -0.137607D-01  0.734725D-01
      2  -0.137607D-01 -0.139530D-01  0.109737D-02
      3   0.734725D-01  0.109737D-02 -0.457571D-01
 Vibrational polarizability contributions from mode   2       0.0853947       0.0177909       0.6366113
 IFr=  0 A012= 0.53D-04 0.15D+00 0.25D-01 Act= 0.17D+00 DepolP= 0.75D+00 DepolU= 0.86D+00
 Dipole derivatives wrt mode   3: -2.22743D-02 -4.95038D-01 -6.83730D-02
 Polarizability derivatives wrt mode          3
                 1             2             3 
      1   0.868413D-02  0.804535D-01  0.996752D-02
      2   0.804535D-01  0.195093D-02 -0.416205D-01
      3   0.996752D-02 -0.416205D-01 -0.115250D-01
 Vibrational polarizability contributions from mode   3       0.0005529       0.2731195       0.0052101
 IFr=  0 A012= 0.12D-05 0.15D+00 0.25D-01 Act= 0.18D+00 DepolP= 0.75D+00 DepolU= 0.86D+00
 Dipole derivatives wrt mode   4: -1.14687D+00 -9.90794D-01 -3.35443D+00
 Polarizability derivatives wrt mode          4
                 1             2             3 
      1  -0.219311D-01  0.378026D-01 -0.564123D-01
      2   0.378026D-01  0.164141D+00  0.111587D+00
      3  -0.564123D-01  0.111587D+00 -0.115379D+00
 Vibrational polarizability contributions from mode   4       0.0864193       0.0644981       0.7392963
 IFr=  0 A012= 0.11D-02 0.67D+00 0.11D+00 Act= 0.79D+00 DepolP= 0.74D+00 DepolU= 0.85D+00
 Dipole derivatives wrt mode   5:  3.48071D-01 -3.51711D+00  9.85381D-01
 Polarizability derivatives wrt mode          5
                 1             2             3 
      1   0.157836D-01  0.386224D-01  0.406840D-01
      2   0.386224D-01 -0.122964D+00  0.145410D+00
      3   0.406840D-01  0.145410D+00  0.974086D-01
 Vibrational polarizability contributions from mode   5       0.0078841       0.8049801       0.0631863
 IFr=  0 A012= 0.14D-03 0.66D+00 0.11D+00 Act= 0.77D+00 DepolP= 0.75D+00 DepolU= 0.86D+00
 Dipole derivatives wrt mode   6:  8.45719D+00 -1.55806D-02 -3.02364D+00
 Polarizability derivatives wrt mode          6
                 1             2             3 
      1   0.216726D+00  0.184205D-04 -0.863092D-01
      2   0.184205D-04 -0.496156D-01  0.842390D-03
      3  -0.863092D-01  0.842390D-03 -0.278613D-01
 Vibrational polarizability contributions from mode   6       2.5811174       0.0000088       0.3299262
 IFr=  0 A012= 0.29D-01 0.59D+00 0.98D-01 Act= 0.71D+00 DepolP= 0.59D+00 DepolU= 0.74D+00
 Dipole derivatives wrt mode   7:  6.05401D+00  1.09885D-01  3.06397D-01
 Polarizability derivatives wrt mode          7
                 1             2             3 
      1   0.285965D+00  0.487014D-02  0.649082D-01
      2   0.487014D-02  0.415132D+00  0.496761D-02
      3   0.649082D-01  0.496761D-02  0.353690D+00
 Vibrational polarizability contributions from mode   7       0.7879535       0.0002596       0.0020183
 IFr=  0 A012= 0.17D+01 0.35D+01 0.58D+00 Act= 0.57D+01 DepolP= 0.13D-01 DepolU= 0.26D-01
 Dipole derivatives wrt mode   8:  1.26130D+00  2.09044D+01  3.87228D+00
 Polarizability derivatives wrt mode          8
                 1             2             3 
      1   0.191797D-01  0.213211D+00  0.342453D-01
      2   0.213211D+00 -0.296235D-01  0.425660D-01
      3   0.342453D-01  0.425660D-01 -0.119051D-01
 Vibrational polarizability contributions from mode   8       0.0177435       4.8739449       0.1672397
 IFr=  0 A012= 0.75D-03 0.88D+00 0.15D+00 Act= 0.10D+01 DepolP= 0.75D+00 DepolU= 0.86D+00
 Dipole derivatives wrt mode   9:  6.38541D+00 -4.20852D+00  2.02636D+01
 Polarizability derivatives wrt mode          9
                 1             2             3 
      1   0.699049D-01 -0.271623D-01  0.107252D+00
      2  -0.271623D-01  0.647034D-01  0.290084D-01
      3   0.107252D+00  0.290084D-01 -0.226028D+00
 Vibrational polarizability contributions from mode   9       0.3924780       0.1704888       3.9524900
 IFr=  0 A012= 0.13D-01 0.78D+00 0.13D+00 Act= 0.92D+00 DepolP= 0.69D+00 DepolU= 0.82D+00
 Diagonal vibrational polarizability:
   100926.5957139       6.2055772       8.0997775
 Diagonal vibrational hyperpolarizability:
      183.9896061       0.5812053       5.6410384
 NorSel:  MapVib=      1      2      3      4      5      6      7      8      9
 Harmonic frequencies (cm**-1), IR intensities (KM/Mole), Raman scattering
 activities (A**4/AMU), depolarization ratios for plane and unpolarized
 incident light, reduced masses (AMU), force constants (mDyne/A),
 and normal coordinates:
                           1         2         3         4         5
                           A         A         A         A         A
       Frequencies ---    -0.9028  112.3935  155.3919  639.9945  643.0718
    Reduced masses ---    18.5912   18.8868   18.8982   18.1927   18.2129
   Force constants ---     0.0000    0.1406    0.2689    4.3904    4.4376
    IR Intensities ---     3.0566    0.3473    0.2502   13.5492   13.4622
  Raman Activities ---     0.0000    0.1718    0.1766    0.7871    0.7713
    Depol. (Plane) ---     0.7408    0.7487    0.7500    0.7440    0.7492
    Depol. (Unpol) ---     0.8511    0.8563    0.8571    0.8532    0.8566
 Coord Atom Element:
   1     1     6         -0.24120  -0.04912  -0.00775  -0.10361   0.03166
   2     1     6          0.00002   0.01907  -0.11823  -0.09093  -0.32094
   3     1     6          0.00113  -0.11475  -0.01655  -0.31004   0.09075
   1     2     9         -0.24120  -0.39769   0.65728   0.17276   0.11611
   2     2     9          0.00002  -0.03798   0.06348   0.29618  -0.40745
   3     2     9          0.00113   0.08117  -0.13675   0.50141   0.22952
   1     3     9         -0.24119   0.78319   0.01656  -0.09309   0.07035
   2     3     9          0.00002   0.01548  -0.18950   0.28981   0.52048
   3     3     9          0.00113  -0.22967  -0.02938  -0.37105   0.23910
   1     4     9          0.87594   0.00050   0.00008   0.00005  -0.00001
   2     4     9         -0.00006  -0.01695   0.11098   0.00263   0.00966
   3     4     9         -0.00410   0.10675   0.01641   0.00988  -0.00303
   1     5     9         -0.24120  -0.35497  -0.66903  -0.01426  -0.20644
   2     5     9          0.00002   0.02740   0.08972  -0.53119   0.08002
   3     5     9          0.00113   0.11423   0.16017   0.05559  -0.52291
                           6         7         8         9
                           A         A         A         A
       Frequencies ---   863.5521 1118.8180 1553.3286 1672.0450
    Reduced masses ---    14.1736   16.5819   13.2198   13.2772
   Force constants ---     6.2274   12.2293   18.7933   21.8701
    IR Intensities ---    80.6666   36.7570  453.5781  469.0990
  Raman Activities ---     0.7127    5.7400    1.0326    0.9190
    Depol. (Plane) ---     0.5880    0.0134    0.7468    0.6923
    Depol. (Unpol) ---     0.7405    0.0265    0.8551    0.8182
 Coord Atom Element:
   1     1     6          0.78217   0.58264   0.04632   0.23793
   2     1     6         -0.00206   0.00495   0.89180  -0.17549
   3     1     6         -0.27862  -0.07617   0.16806   0.85446
   1     2     9         -0.13424  -0.18122   0.08367  -0.05600
   2     2     9         -0.24354   0.41641  -0.27552   0.11694
   3     2     9          0.16133  -0.14396   0.05572  -0.07477
   1     3     9         -0.24398   0.03401  -0.00580  -0.04386
   2     3     9          0.03478  -0.05603  -0.04114   0.05029
   3     3     9         -0.20466   0.43094  -0.03885  -0.37804
   1     4     9          0.00001   0.00000   0.00000  -0.00002
   2     4     9          0.00010  -0.00002  -0.00448   0.00076
   3     4     9          0.00232  -0.00039  -0.00087  -0.00381
   1     5     9         -0.11583  -0.22080  -0.10712  -0.05040
   2     5     9          0.20997  -0.36348  -0.24215  -0.05714
   3     5     9          0.21700  -0.23848  -0.12215  -0.08308
 Harmonic frequencies (cm**-1), IR intensities (KM/Mole), Raman scattering
 activities (A**4/AMU), depolarization ratios for plane and unpolarized
 incident light, reduced masses (AMU), force constants (mDyne/A),
 and normal coordinates:
                      1                      2                      3
                      A                      A                      A
 Frequencies --     -0.9028               112.3935               155.3919
 Red. masses --     18.5912                18.8868                18.8982
 Frc consts  --      0.0000                 0.1406                 0.2689
 IR Inten    --      3.0566                 0.3473                 0.2502
 Raman Activ --      0.0000                 0.1718                 0.1766
 Depolar (P) --      0.7408                 0.7487                 0.7500
 Depolar (U) --      0.8511                 0.8563                 0.8571
  Atom  AN      X      Y      Z        X      Y      Z        X      Y      Z
     1   6    -0.24   0.00   0.00    -0.05   0.02  -0.11    -0.01  -0.12  -0.02
     2   9    -0.24   0.00   0.00    -0.40  -0.04   0.08     0.66   0.06  -0.14
     3   9    -0.24   0.00   0.00     0.78   0.02  -0.23     0.02  -0.19  -0.03
     4   9     0.88   0.00   0.00     0.00  -0.02   0.11     0.00   0.11   0.02
     5   9    -0.24   0.00   0.00    -0.35   0.03   0.11    -0.67   0.09   0.16
                      4                      5                      6
                      A                      A                      A
 Frequencies --    639.9945               643.0718               863.5521
 Red. masses --     18.1927                18.2129                14.1736
 Frc consts  --      4.3904                 4.4376                 6.2274
 IR Inten    --     13.5492                13.4622                80.6666
 Raman Activ --      0.7871                 0.7713                 0.7127
 Depolar (P) --      0.7440                 0.7492                 0.5880
 Depolar (U) --      0.8532                 0.8566                 0.7405
  Atom  AN      X      Y      Z        X      Y      Z        X      Y      Z
     1   6    -0.10  -0.09  -0.31     0.03  -0.32   0.09     0.78   0.00  -0.28
     2   9     0.17   0.30   0.50     0.12  -0.41   0.23    -0.13  -0.24   0.16
     3   9    -0.09   0.29  -0.37     0.07   0.52   0.24    -0.24   0.03  -0.20
     4   9     0.00   0.00   0.01     0.00   0.01   0.00     0.00   0.00   0.00
     5   9    -0.01  -0.53   0.06    -0.21   0.08  -0.52    -0.12   0.21   0.22
                      7                      8                      9
                      A                      A                      A
 Frequencies --   1118.8180              1553.3286              1672.0450
 Red. masses --     16.5819                13.2198                13.2772
 Frc consts  --     12.2293                18.7933                21.8701
 IR Inten    --     36.7570               453.5781               469.0990
 Raman Activ --      5.7400                 1.0326                 0.9190
 Depolar (P) --      0.0134                 0.7468                 0.6923
 Depolar (U) --      0.0265                 0.8551                 0.8182
  Atom  AN      X      Y      Z        X      Y      Z        X      Y      Z
     1   6     0.58   0.00  -0.08     0.05   0.89   0.17     0.24  -0.18   0.85
     2   9    -0.18   0.42  -0.14     0.08  -0.28   0.06    -0.06   0.12  -0.07
     3   9     0.03  -0.06   0.43    -0.01  -0.04  -0.04    -0.04   0.05  -0.38
     4   9     0.00   0.00   0.00     0.00   0.00   0.00     0.00   0.00   0.00
     5   9    -0.22  -0.36  -0.24    -0.11  -0.24  -0.12    -0.05  -0.06  -0.08

 -------------------
 - Thermochemistry -
 -------------------
 Temperature   298.150 Kelvin.  Pressure   1.00000 Atm.
 Atom     1 has atomic number  6 and mass  12.00000
 Atom     2 has atomic number  9 and mass  18.99840
 Atom     3 has atomic number  9 and mass  18.99840
 Atom     4 has atomic number  9 and mass  18.99840
 Atom     5 has atomic number  9 and mass  18.99840
 Molecular mass:    87.99361 amu.
 Principal axes and moments of inertia in atomic units:
                           1         2         3
     Eigenvalues --   281.244429951.710699971.13904
           X            1.00000   0.00000   0.00004
           Y            0.00000   1.00000  -0.00001
           Z           -0.00004   0.00001   1.00000
 This molecule is an asymmetric top.
 Rotational symmetry number  1.
 Rotational temperatures (Kelvin)      0.30797     0.00870     0.00869
 Rotational constants (GHZ):           6.41698     0.18135     0.18100
    1 imaginary frequencies ignored.
 Zero-point vibrational energy      40425.4 (Joules/Mol)
                                    9.66190 (Kcal/Mol)
 Warning -- explicit consideration of   2 degrees of freedom as
           vibrations may cause significant error
 Vibrational temperatures:    161.71   223.57   920.81   925.24  1242.46
          (Kelvin)           1609.73  2234.89  2405.70
 
 Zero-point correction=                           0.015397 (Hartree/Particle)
 Thermal correction to Energy=                    0.019943
 Thermal correction to Enthalpy=                  0.020888
 Thermal correction to Gibbs Free Energy=        -0.016766
 Sum of electronic and zero-point Energies=           -435.103268
 Sum of electronic and thermal Energies=              -435.098722
 Sum of electronic and thermal Enthalpies=            -435.097777
 Sum of electronic and thermal Free Energies=         -435.135431
 
                     E (Thermal)             CV                S
                      KCal/Mol        Cal/Mol-Kelvin    Cal/Mol-Kelvin
 Total                   12.515             12.606             79.249
 Electronic               0.000              0.000              1.377
 Translational            0.889              2.981             39.337
 Rotational               0.889              2.981             31.701
 Vibrational             10.737              6.645              6.833
 Vibration     1          0.607              1.939              3.227
 Vibration     2          0.620              1.897              2.605
                       Q            Log10(Q)             Ln(Q)
 Total Bot       0.515088D+08          7.711882         17.757264
 Total V=0       0.622433D+15         14.794093         34.064658
 Vib (Bot)       0.419769D-06         -6.376990        -14.683562
 Vib (Bot)    1  0.182134D+01          0.260391          0.599572
 Vib (Bot)    2  0.130282D+01          0.114885          0.264534
 Vib (V=0)       0.507249D+01          0.705221          1.623832
 Vib (V=0)    1  0.238872D+01          0.378166          0.870759
 Vib (V=0)    2  0.189547D+01          0.277718          0.639469
 Electronic      0.200000D+01          0.301030          0.693147
 Translational   0.324438D+08          7.511132         17.295020
 Rotational      0.189108D+07          6.276710         14.452658
 
                                                          Distorted Ethanol
                                                             IR Spectrum
 
     1         1                                1                                                                                    
     6         5                                1                  8               66                                    1  1        
     7         5                                1                  6               44                                    5  1        
     2         3                                9                  4               30                                    5  2        
 
     X         X                                X                  X               XX                                    X  X        
     X         X                                X                  X                                                                 
     X         X                                                   X                                                                 
     X         X                                                                                                                     
     X         X                                                                                                                     
     X         X                                                                                                                     
     X         X                                                                                                                     
     X         X                                                                                                                     
     X         X                                                                                                                     
     X         X                                                                                                                     
     X         X                                                                                                                     
     X         X                                                                                                                     
     X         X                                                                                                                     
     X         X                                                                                                                     
     X         X                                                                                                                     
     X         X                                                                                                                     
     X         X                                                                                                                     
     X         X                                                                                                                     
     X         X                                                                                                                     
     X                                                                                                                               
 
 
                                                          Distorted Ethanol
                                                            Raman Spectrum
 
     1         1                                1                                                                                    
     6         5                                1                  8               66                                    1  1        
     7         5                                1                  6               44                                    5  1        
     2         3                                9                  4               30                                    5  2        
 
     X         X                                X                  X               XX                                    X  X        
     X         X                                X                  X               XX                                                
     X         X                                X                                  XX                                                
               X                                X                                                                                    
                                                X                                                                                    
                                                X                                                                                    
                                                X                                                                                    
                                                X                                                                                    
                                                X                                                                                    
                                                X                                                                                    
                                                X                                                                                    
                                                X                                                                                    
                                                X                                                                                    
                                                X                                                                                    
                                                X                                                                                    
                                                X                                                                                    
                                                X                                                                                    
                                                X                                                                                    
                                                X                                                                                    
                                                X                                                                                    
 
 Forces in standard orientation:
 -------------------------------------------------------------------
 Center     Atomic                   Forces (Hartrees/Bohr)
 Number     Number              X              Y              Z
 -------------------------------------------------------------------
      1        6           0.185033200    0.000782872   -0.033473383
      2        9          -0.062617602    0.020599971    0.012847652
      3        9          -0.056580235   -0.000145112    0.013350943
      4        9           0.000002779    0.000000007   -0.000000004
      5        9          -0.065838142   -0.021237739    0.007274792
 -------------------------------------------------------------------
 ***** Axes restored to original set *****
 Rotating derivatives, DoTrsp=F IDiff=-2 LEDeriv=    772 LFDPrp=       0 LDFDPr=       0.
 -------------------------------------------------------------------
 Center     Atomic                   Forces (Hartrees/Bohr)
 Number     Number              X              Y              Z
 -------------------------------------------------------------------
      1        6           0.055435018    0.174724663   -0.041912006
      2        9          -0.036414601   -0.056332755    0.003314012
      3        9          -0.015997931   -0.054939434    0.010262382
      4        9           0.000001002    0.000002379   -0.000001029
      5        9          -0.003023488   -0.063454853    0.028336642
 -------------------------------------------------------------------
 Cartesian Forces:  Max     0.174724663 RMS     0.056619765
 Z-matrix is all fixed cartesians, so copy forces.
 Force constants in Cartesian coordinates: 
                1             2             3             4             5 
      1  0.842218D+00
      2 -0.141017D+00  0.385325D+00
      3 -0.376137D-01  0.861110D-01  0.895505D+00
      4 -0.468129D+00  0.211751D-01 -0.249714D-01  0.608538D+00
      5 -0.120274D-01 -0.952756D-01 -0.382091D-02 -0.470904D-01  0.531895D-01
      6 -0.215397D-01 -0.641427D-03 -0.118499D+00  0.320447D-01  0.446039D-02
      7 -0.213155D+00  0.913509D-01  0.168014D+00 -0.802209D-01  0.378176D-01
      8  0.109480D+00 -0.171898D+00 -0.170556D+00  0.193522D-01  0.184350D-01
      9  0.172620D+00 -0.144464D+00 -0.391296D+00  0.458790D-01 -0.189383D-01
     10  0.000000D+00  0.000000D+00  0.000000D+00  0.000000D+00  0.000000D+00
     11  0.000000D+00  0.000000D+00  0.000000D+00  0.000000D+00  0.000000D+00
     12  0.000000D+00  0.000000D+00  0.000000D+00  0.000000D+00  0.000000D+00
     13 -0.160934D+00  0.284909D-01 -0.105429D+00 -0.601882D-01  0.213002D-01
     14  0.435646D-01 -0.118152D+00  0.882661D-01  0.656321D-02  0.236511D-01
     15 -0.113466D+00  0.589946D-01 -0.385710D+00 -0.529522D-01  0.182988D-01
                6             7             8             9            10 
      6  0.125638D+00
      7  0.610408D-01  0.260311D+00
      8 -0.149888D-01 -0.131199D+00  0.128985D+00
      9  0.730602D-02 -0.233155D+00  0.187221D+00  0.497096D+00
     10  0.000000D+00  0.000000D+00  0.000000D+00  0.000000D+00  0.000000D+00
     11  0.000000D+00  0.000000D+00  0.000000D+00  0.000000D+00  0.000000D+00
     12  0.000000D+00  0.000000D+00  0.000000D+00  0.000000D+00  0.000000D+00
     13 -0.715459D-01  0.330651D-01  0.236762D-02  0.146565D-01  0.000000D+00
     14  0.111698D-01  0.203096D-02  0.244774D-01 -0.238193D-01  0.000000D+00
     15 -0.144457D-01  0.410019D-02 -0.167682D-02 -0.113106D+00  0.000000D+00
               11            12            13            14            15 
     11  0.000000D+00
     12  0.000000D+00  0.000000D+00
     13  0.000000D+00  0.000000D+00  0.188057D+00
     14  0.000000D+00  0.000000D+00 -0.521587D-01  0.700235D-01
     15  0.000000D+00  0.000000D+00  0.162319D+00 -0.756166D-01  0.513262D+00
 Final forces over variables, Energy=-4.35118665D+02:
  5.54350179D-02-3.64146006D-02-1.59979313D-02 1.00205475D-06
 -3.02348814D-03 1.74724663D-01-5.63327551D-02-5.49394338D-02
  2.37862972D-06-6.34548530D-02-4.19120061D-02 3.31401177D-03
  1.02623819D-02-1.02917091D-06 2.83366416D-02
 Leave Link  716 at Sat Mar  4 13:43:19 2017, MaxMem=   655360000 cpu:         0.2
 (Enter /mnt/software/gaussian/g09/l103.exe)

 GradGradGradGradGradGradGradGradGradGradGradGradGradGradGradGradGradGrad
 Berny optimization.
 Search for a local minimum.
 Step number   1 out of a maximum of    2
 All quantities printed in internal units (Hartrees-Bohrs-Radians)
 Second derivative matrix not updated -- analytic derivatives used.
 The second derivative matrix:
                          X1        Y1        Z1        X2        Y2
           X1           0.84222
           Y1          -0.14102   0.38532
           Z1          -0.03761   0.08611   0.89550
           X2          -0.46813   0.02118  -0.02497   0.60854
           Y2          -0.01203  -0.09528  -0.00382  -0.04709   0.05319
           Z2          -0.02154  -0.00064  -0.11850   0.03204   0.00446
           X3          -0.21316   0.09135   0.16801  -0.08022   0.03782
           Y3           0.10948  -0.17190  -0.17056   0.01935   0.01843
           Z3           0.17262  -0.14446  -0.39130   0.04588  -0.01894
           X4           0.00000   0.00000   0.00000   0.00000   0.00000
           Y4           0.00000   0.00000   0.00000   0.00000   0.00000
           Z4           0.00000   0.00000   0.00000   0.00000   0.00000
           X5          -0.16093   0.02849  -0.10543  -0.06019   0.02130
           Y5           0.04356  -0.11815   0.08827   0.00656   0.02365
           Z5          -0.11347   0.05899  -0.38571  -0.05295   0.01830
                          Z2        X3        Y3        Z3        X4
           Z2           0.12564
           X3           0.06104   0.26031
           Y3          -0.01499  -0.13120   0.12899
           Z3           0.00731  -0.23316   0.18722   0.49710
           X4           0.00000   0.00000   0.00000   0.00000   0.00000
           Y4           0.00000   0.00000   0.00000   0.00000   0.00000
           Z4           0.00000   0.00000   0.00000   0.00000   0.00000
           X5          -0.07155   0.03307   0.00237   0.01466   0.00000
           Y5           0.01117   0.00203   0.02448  -0.02382   0.00000
           Z5          -0.01445   0.00410  -0.00168  -0.11311   0.00000
                          Y4        Z4        X5        Y5        Z5
           Y4           0.00000
           Z4           0.00000   0.00000
           X5           0.00000   0.00000   0.18806
           Y5           0.00000   0.00000  -0.05216   0.07002
           Z5           0.00000   0.00000   0.16232  -0.07562   0.51326
 ITU=  0
     Eigenvalues ---    0.00000   0.00904   0.01729   0.28214   0.28511
     Eigenvalues ---    0.39700   0.83670   1.25323   1.46114
 Eigenvalue     1 is  -5.74D-07 should be greater than     0.000000 Eigenvector:
                          Y4        Z4        X4        Y1        Y5
   1                    0.75910  -0.32483   0.32063  -0.19890  -0.19890
                          Y2        Y3        Z1        Z5        Z2
   1                   -0.19890  -0.19890   0.08511   0.08511   0.08511
 Quadratic step=4.900D+00 exceeds max=3.000D-01 adjusted using Lamda=-2.816D-01.
 Angle between NR and scaled steps=  83.89 degrees.
 Angle between quadratic step and forces=  11.11 degrees.
 Linear search not attempted -- first point.
 TrRot= -0.002969 -0.009430  0.001903 -2.240687 -0.000105  2.240610
 MatCor failed.
 Variable       Old X    -DE/DX   Delta X   Delta X   Delta X     New X
                                 (Linear)    (Quad)   (Total)
    X1        0.82024   0.05544   0.00000   0.07089   0.06849   0.88873
    Y1        8.84318   0.17472   0.00000   0.25528   0.24562   9.08880
    Z1       -1.93200  -0.04191   0.00000  -0.04244  -0.04135  -1.97335
    X2        3.19299  -0.03641   0.00000  -0.01679  -0.01920   3.17379
    Y2        8.91039  -0.05633   0.00000  -0.07271  -0.08253   8.82786
    Z2       -1.79661   0.00331   0.00000   0.00286   0.00383  -1.79278
    X3       -0.26125  -0.01600   0.00000  -0.03189  -0.03412  -0.29537
    Y3        9.87361  -0.05494   0.00000  -0.07147  -0.08089   9.79272
    Z3       -0.14690   0.01026   0.00000   0.02878   0.02989  -0.11701
    X4       -8.33820   0.00000   0.00000   0.00336  -0.00009  -8.33829
    Y4      -12.65745   0.00000   0.00000   0.00882   0.00064 -12.65681
    Z4        7.41030   0.00000   0.00000  -0.00311   0.00038   7.41068
    X5       -0.01976  -0.00302   0.00000  -0.01257  -0.01508  -0.03484
    Y5        9.50906  -0.06345   0.00000  -0.07307  -0.08283   9.42622
    Z5       -4.06524   0.02834   0.00000   0.00612   0.00725  -4.05799
         Item               Value     Threshold  Converged?
 Maximum Force            0.174725     0.000450     NO 
 RMS     Force            0.056620     0.000300     NO 
 Maximum Displacement     0.245619     0.001800     NO 
 RMS     Displacement     0.077316     0.001200     NO 
 Predicted change in Energy=-4.499712D-02
 GradGradGradGradGradGradGradGradGradGradGradGradGradGradGradGradGradGrad

 Leave Link  103 at Sat Mar  4 13:43:19 2017, MaxMem=   655360000 cpu:         0.1
 (Enter /mnt/software/gaussian/g09/l9999.exe)

 Test job not archived.
 1\1\GINC-TP-LINUX1\Freq\UHF\6-31G(d)\C1F4(1+,2)\THOMAS\04-Mar-2017\0\\
 #P UHF/6-31g* IOP(7/33=1) IOP(7/8=11) Freq\\Distorted Ethanol\\1,2\C,0
 .434053,4.679611,-1.022368\F,1.689659,4.715175,-0.950725\F,-0.138247,5
 .224888,-0.077737\F,-4.412388,-6.698032,3.92136\F,-0.010454,5.031976,-
 2.151233\\Version=ES64L-G09RevD.01\State=2-A\HF=-435.118665\S2=0.75267
 3\S2-1=0.\S2A=0.750003\RMSD=4.531e-09\RMSF=5.662e-02\ZeroPoint=0.01539
 72\Thermal=0.0199433\Dipole=1.8112694,4.0791942,-1.9029814\DipoleDeriv
 =2.2822287,-0.2550662,0.0035131,-0.259667,1.3167759,0.105261,0.0022419
 ,0.0950611,2.3451127,-0.6753263,0.1515042,-0.0413828,-0.0490302,-0.076
 6066,-0.0195302,-0.0291216,-0.0023484,-0.2212411,-0.3297715,0.0748417,
 0.175507,0.1931775,-0.1384511,-0.2527925,0.2052923,-0.0840031,-0.53278
 47,0.0000646,-0.0000983,0.0000396,-0.0000984,-0.0001207,0.0001,0.00003
 98,0.0000997,0.0000613,-0.2771954,0.0288186,-0.1376769,0.115618,-0.101
 5974,0.1669617,-0.1784524,-0.0088093,-0.5911481\Polar=12.9345066,-0.88
 19835,9.6263969,0.0475215,0.2454368,12.9884083\PolarDeriv=-1.8836438,-
 1.6727938,-0.025066,0.1096935,-0.0014352,0.0025283,-1.7008446,-0.08045
 22,-3.8126116,-0.0184601,0.1183124,-1.9691997,0.0677107,-0.0161983,-0.
 005214,-0.0095849,-1.9510236,0.8058025,5.8103303,0.1404255,0.6781482,0
 .1955121,0.0750627,1.2844739,0.0730852,1.4044438,0.4732443,0.0315159,0
 .0433709,0.2782747,0.1337994,0.0434192,-0.018083,1.8089358,-0.0600051,
 0.294339,-2.2089776,0.9330477,-0.4429563,1.3928326,-0.3741887,-0.63557
 48,0.9368766,-0.7754758,1.9757124,-0.1628895,1.2164403,0.9955357,0.922
 0002,-0.3717181,0.7926919,-0.9212369,1.1346216,3.916336,0.0006348,0.00
 05902,-0.0012431,-0.0006848,-0.0004726,0.0005673,-0.0006601,-0.0002836
 ,0.0011179,0.0003764,0.0000623,-0.0004948,-0.0005498,-0.0005654,0.0008
 211,0.0004797,0.000188,-0.0002121,-1.7183436,0.5987304,-0.2088828,-1.6
 973535,0.3010338,-0.6519948,0.6915429,-0.5482322,1.362537,0.1494572,-1
 .3781859,0.6958841,-1.1229606,0.3450627,-0.770216,-0.8785937,0.8762191
 ,-5.0162654\HyperPolar=-11.6988726,-5.8669765,0.935924,-7.3263905,-1.3
 781152,0.3669051,-0.1600079,5.0843381,-9.7400508,3.8171073\PG=C01 [X(C
 1F4)]\NImag=1\\0.84221806,-0.14101737,0.38532487,-0.03761371,0.0861109
 6,0.89550493,-0.46812857,0.02117508,-0.02497144,0.60853758,-0.01202735
 ,-0.09527556,-0.00382091,-0.04709038,0.05318951,-0.02153966,-0.0006414
 3,-0.11849881,0.03204472,0.00446039,0.12563849,-0.21315549,0.09135094,
 0.16801431,-0.08022093,0.03781759,0.06104084,0.26031125,0.10947971,-0.
 17189759,-0.17055569,0.01935216,0.01843499,-0.01498876,-0.13119940,0.1
 2898517,0.17261989,-0.14446373,-0.39129606,0.04587896,-0.01893829,0.00
 730602,-0.23315533,0.18722119,0.49709640,-0.00000025,0.00000047,-0.000
 00003,0.00000007,-0.00000006,0.,0.00000004,-0.00000009,-0.00000004,0.0
 0000011,0.00000042,0.00000020,-0.00000044,-0.00000007,0.,0.00000004,-0
 .00000009,0.00000006,0.00000013,-0.00000023,-0.00000027,-0.00000003,-0
 .00000039,-0.00000018,0.,0.00000005,0.00000002,-0.00000002,0.00000007,
 0.00000005,0.00000003,0.00000022,0.00000007,-0.16093375,0.02849088,-0.
 10542913,-0.06018816,0.02130020,-0.07154591,0.03306512,0.00236762,0.01
 465652,0.00000003,-0.00000003,0.00000001,0.18805676,0.04356459,-0.1181
 5192,0.08826609,0.00656321,0.02365106,0.01116976,0.00203096,0.02447737
 ,-0.02381931,-0.00000009,0.,0.00000005,-0.05215867,0.07002349,-0.11346
 649,0.05899459,-0.38570989,-0.05295224,0.01829876,-0.01444571,0.004100
 19,-0.00167682,-0.11310641,0.00000003,0.00000006,0.00000004,0.16231851
 ,-0.07561659,0.51326198\\-0.05543502,-0.17472466,0.04191201,0.03641460
 ,0.05633276,-0.00331401,0.01599793,0.05493943,-0.01026238,-0.00000100,
 -0.00000238,0.00000103,0.00302349,0.06345485,-0.02833664\\\@


 THE CAUTIOUS SELDOM ERR...CONFUCIUS                   
 Job cpu time:       0 days  0 hours  0 minutes 21.4 seconds.
 File lengths (MBytes):  RWF=     12 Int=      0 D2E=      0 Chk=      2 Scr=      1
 Normal termination of Gaussian 09 at Sat Mar  4 13:43:19 2017.
