 Entering Gaussian System, Link 0=g09
 Input=/home/thomas/cf4/DD-vMCG/dd_data/gwp5_V1_dd_data.com
 Output=/home/thomas/cf4/DD-vMCG/dd_data/gwp5_V1_dd_data.log
 Initial command:
 /mnt/software/gaussian/g09/l1.exe "/scratch/Gau-32528.inp" -scrdir="/scratch/"
 Entering Link 1 = /mnt/software/gaussian/g09/l1.exe PID=     32530.
  
 Copyright (c) 1988,1990,1992,1993,1995,1998,2003,2009,2013,
            Gaussian, Inc.  All Rights Reserved.
  
 This is part of the Gaussian(R) 09 program.  It is based on
 the Gaussian(R) 03 system (copyright 2003, Gaussian, Inc.),
 the Gaussian(R) 98 system (copyright 1998, Gaussian, Inc.),
 the Gaussian(R) 94 system (copyright 1995, Gaussian, Inc.),
 the Gaussian 92(TM) system (copyright 1992, Gaussian, Inc.),
 the Gaussian 90(TM) system (copyright 1990, Gaussian, Inc.),
 the Gaussian 88(TM) system (copyright 1988, Gaussian, Inc.),
 the Gaussian 86(TM) system (copyright 1986, Carnegie Mellon
 University), and the Gaussian 82(TM) system (copyright 1983,
 Carnegie Mellon University). Gaussian is a federally registered
 trademark of Gaussian, Inc.
  
 This software contains proprietary and confidential information,
 including trade secrets, belonging to Gaussian, Inc.
  
 This software is provided under written license and may be
 used, copied, transmitted, or stored only in accord with that
 written license.
  
 The following legend is applicable only to US Government
 contracts under FAR:
  
                    RESTRICTED RIGHTS LEGEND
  
 Use, reproduction and disclosure by the US Government is
 subject to restrictions as set forth in subparagraphs (a)
 and (c) of the Commercial Computer Software - Restricted
 Rights clause in FAR 52.227-19.
  
 Gaussian, Inc.
 340 Quinnipiac St., Bldg. 40, Wallingford CT 06492
  
  
 ---------------------------------------------------------------
 Warning -- This program may not be used in any manner that
 competes with the business of Gaussian, Inc. or will provide
 assistance to any competitor of Gaussian, Inc.  The licensee
 of this program is prohibited from giving any competitor of
 Gaussian, Inc. access to this program.  By using this program,
 the user acknowledges that Gaussian, Inc. is engaged in the
 business of creating and licensing software in the field of
 computational chemistry and represents and warrants to the
 licensee that it is not a competitor of Gaussian, Inc. and that
 it will not use this program in any manner prohibited above.
 ---------------------------------------------------------------
  

 Cite this work as:
 Gaussian 09, Revision D.01,
 M. J. Frisch, G. W. Trucks, H. B. Schlegel, G. E. Scuseria, 
 M. A. Robb, J. R. Cheeseman, G. Scalmani, V. Barone, B. Mennucci, 
 G. A. Petersson, H. Nakatsuji, M. Caricato, X. Li, H. P. Hratchian, 
 A. F. Izmaylov, J. Bloino, G. Zheng, J. L. Sonnenberg, M. Hada, 
 M. Ehara, K. Toyota, R. Fukuda, J. Hasegawa, M. Ishida, T. Nakajima, 
 Y. Honda, O. Kitao, H. Nakai, T. Vreven, J. A. Montgomery, Jr., 
 J. E. Peralta, F. Ogliaro, M. Bearpark, J. J. Heyd, E. Brothers, 
 K. N. Kudin, V. N. Staroverov, T. Keith, R. Kobayashi, J. Normand, 
 K. Raghavachari, A. Rendell, J. C. Burant, S. S. Iyengar, J. Tomasi, 
 M. Cossi, N. Rega, J. M. Millam, M. Klene, J. E. Knox, J. B. Cross, 
 V. Bakken, C. Adamo, J. Jaramillo, R. Gomperts, R. E. Stratmann, 
 O. Yazyev, A. J. Austin, R. Cammi, C. Pomelli, J. W. Ochterski, 
 R. L. Martin, K. Morokuma, V. G. Zakrzewski, G. A. Voth, 
 P. Salvador, J. J. Dannenberg, S. Dapprich, A. D. Daniels, 
 O. Farkas, J. B. Foresman, J. V. Ortiz, J. Cioslowski, 
 and D. J. Fox, Gaussian, Inc., Wallingford CT, 2013.
 
 ******************************************
 Gaussian 09:  ES64L-G09RevD.01 24-Apr-2013
                 4-Mar-2017 
 ******************************************
 %mem=5000MB
 %Nprocshared=6
 Will use up to    6 processors via shared memory.
 %chk=gwp5_V1_dd_data.chk
 ------------------------------------------
 #P UHF/6-31g* IOP(7/33=1) IOP(7/8=11) Freq
 ------------------------------------------
 1/10=4,30=1,38=1/1,3;
 2/12=2,17=6,18=5,40=1/2;
 3/5=1,6=6,7=1,11=2,16=1,25=1,30=1,71=2,116=2,140=1/1,2,3;
 4//1;
 5/5=2,38=5,98=1/2;
 8/6=4,10=90,11=11/1;
 10/13=10,15=4/2;
 11/6=3,8=1,9=11,15=111,16=1/1,2,10;
 10/6=1/2;
 6/7=2,8=2,9=2,10=2,18=1,28=1/1;
 7/8=11,10=1,25=1,33=1/1,2,3,16;
 1/10=4,30=1/3;
 99//99;
 Leave Link    1 at Sat Mar  4 13:43:43 2017, MaxMem=   655360000 cpu:         0.2
 (Enter /mnt/software/gaussian/g09/l101.exe)
 -----------------
 Distorted Ethanol
 -----------------
 Symbolic Z-matrix:
 Charge =  1 Multiplicity = 2
 6                     0.83711   4.59597  -1.25136 
 9                     1.85271   5.30332  -1.08841 
 9                     0.13861   4.37055  -0.2309 
 9                    -6.14256  -6.71809   4.79386 
 9                     0.1334    4.93548  -2.25717 
 
 NAtoms=      5 NQM=        5 NQMF=       0 NMMI=      0 NMMIF=      0
                NMic=       0 NMicF=      0.
                    Isotopes and Nuclear Properties:
 (Nuclear quadrupole moments (NQMom) in fm**2, nuclear magnetic moments (NMagM)
  in nuclear magnetons)

  Atom         1           2           3           4           5
 IAtWgt=          12          19          19          19          19
 AtmWgt=  12.0000000  18.9984033  18.9984033  18.9984033  18.9984033
 NucSpn=           0           1           1           1           1
 AtZEff=   0.0000000   0.0000000   0.0000000   0.0000000   0.0000000
 NQMom=    0.0000000   0.0000000   0.0000000   0.0000000   0.0000000
 NMagM=    0.0000000   2.6288670   2.6288670   2.6288670   2.6288670
 AtZNuc=   6.0000000   9.0000000   9.0000000   9.0000000   9.0000000
 Leave Link  101 at Sat Mar  4 13:43:43 2017, MaxMem=   655360000 cpu:         0.4
 (Enter /mnt/software/gaussian/g09/l103.exe)

 GradGradGradGradGradGradGradGradGradGradGradGradGradGradGradGradGradGrad
 Berny optimization.
 Initialization pass.
 Trust Radius=3.00D-01 FncErr=1.00D-07 GrdErr=1.00D-07
 Number of steps in this run=      2 maximum allowed number of steps=      2.
 GradGradGradGradGradGradGradGradGradGradGradGradGradGradGradGradGradGrad

 Leave Link  103 at Sat Mar  4 13:43:43 2017, MaxMem=   655360000 cpu:         0.1
 (Enter /mnt/software/gaussian/g09/l202.exe)
                          Input orientation:                          
 ---------------------------------------------------------------------
 Center     Atomic      Atomic             Coordinates (Angstroms)
 Number     Number       Type             X           Y           Z
 ---------------------------------------------------------------------
      1          6           0        0.837109    4.595972   -1.251357
      2          9           0        1.852714    5.303324   -1.088406
      3          9           0        0.138608    4.370554   -0.230904
      4          9           0       -6.142559   -6.718085    4.793858
      5          9           0        0.133395    4.935476   -2.257166
 ---------------------------------------------------------------------
                    Distance matrix (angstroms):
                    1          2          3          4          5
     1  C    0.000000
     2  F    1.248340   0.000000
     3  F    1.256997   2.131556   0.000000
     4  F   14.603708  15.589730  13.698876   0.000000
     5  F    1.273628   2.111248   2.103545  14.997000   0.000000
 Stoichiometry    CF4(1+,2)
 Framework group  C1[X(CF4)]
 Deg. of freedom     9
 Full point group                 C1      NOp   1
 Largest Abelian subgroup         C1      NOp   1
 Largest concise Abelian subgroup C1      NOp   1
                         Standard orientation:                         
 ---------------------------------------------------------------------
 Center     Atomic      Atomic             Coordinates (Angstroms)
 Number     Number       Type             X           Y           Z
 ---------------------------------------------------------------------
      1          6           0        3.046247   -0.021701   -0.212207
      2          9           0        4.010021   -0.807466   -0.322049
      3          9           0        2.123040   -0.368863    0.567029
      4          9           0      -11.556635   -0.001677   -0.058178
      5          9           0        3.392742    1.192474   -0.045330
 ---------------------------------------------------------------------
 Rotational constants (GHZ):      9.9649767      0.1546829      0.1531236
 Leave Link  202 at Sat Mar  4 13:43:43 2017, MaxMem=   655360000 cpu:         0.1
 (Enter /mnt/software/gaussian/g09/l301.exe)
 Standard basis: 6-31G(d) (6D, 7F)
 Ernie: Thresh=  0.10000D-02 Tol=  0.10000D-05 Strict=F.
 There are    75 symmetry adapted cartesian basis functions of A   symmetry.
 There are    75 symmetry adapted basis functions of A   symmetry.
    75 basis functions,   140 primitive gaussians,    75 cartesian basis functions
    21 alpha electrons       20 beta electrons
       nuclear repulsion energy       139.5417538934 Hartrees.
 IExCor=    0 DFT=F Ex=HF Corr=None ExCW=0 ScaHFX=  1.000000
 ScaDFX=  1.000000  1.000000  1.000000  1.000000 ScalE2=  1.000000  1.000000
 IRadAn=      0 IRanWt=     -1 IRanGd=            0 ICorTp=0 IEmpDi=  4
 NAtoms=    5 NActive=    5 NUniq=    5 SFac= 1.00D+00 NAtFMM=   60 NAOKFM=F Big=F
 Integral buffers will be    131072 words long.
 Raffenetti 2 integral format.
 Two-electron integral symmetry is turned on.
 Leave Link  301 at Sat Mar  4 13:43:43 2017, MaxMem=   655360000 cpu:         0.2
 (Enter /mnt/software/gaussian/g09/l302.exe)
 NPDir=0 NMtPBC=     1 NCelOv=     1 NCel=       1 NClECP=     1 NCelD=      1
         NCelK=      1 NCelE2=     1 NClLst=     1 CellRange=     0.0.
 One-electron integrals computed using PRISM.
 NBasis=    75 RedAO= T EigKep=  3.46D-03  NBF=    75
 NBsUse=    75 1.00D-06 EigRej= -1.00D+00 NBFU=    75
 Leave Link  302 at Sat Mar  4 13:43:43 2017, MaxMem=   655360000 cpu:         0.8
 (Enter /mnt/software/gaussian/g09/l303.exe)
 DipDrv:  MaxL=1.
 Leave Link  303 at Sat Mar  4 13:43:43 2017, MaxMem=   655360000 cpu:         0.1
 (Enter /mnt/software/gaussian/g09/l401.exe)
 ExpMin= 1.69D-01 ExpMax= 7.00D+03 ExpMxC= 1.05D+03 IAcc=1 IRadAn=         1 AccDes= 0.00D+00
 Harris functional with IExCor=  205 and IRadAn=       1 diagonalized for initial guess.
 HarFok:  IExCor=  205 AccDes= 0.00D+00 IRadAn=         1 IDoV= 1 UseB2=F ITyADJ=14
 ICtDFT=  3500011 ScaDFX=  1.000000  1.000000  1.000000  1.000000
 FoFCou: FMM=F IPFlag=           0 FMFlag=      100000 FMFlg1=           0
         NFxFlg=           0 DoJE=T BraDBF=F KetDBF=T FulRan=T
         wScrn=  0.000000 ICntrl=     500 IOpCl=  0 I1Cent=   200000004 NGrid=           0
         NMat0=    1 NMatS0=      1 NMatT0=    0 NMatD0=    1 NMtDS0=    0 NMtDT0=    0
 Petite list used in FoFCou.
 Harris En= -435.018229422142    
 JPrj=0 DoOrth=F DoCkMO=F.
 Initial guess <Sx>= 0.0000 <Sy>= 0.0000 <Sz>= 0.5000 <S**2>= 0.7500 S= 0.5000
 Leave Link  401 at Sat Mar  4 13:43:43 2017, MaxMem=   655360000 cpu:         0.7
 (Enter /mnt/software/gaussian/g09/l502.exe)
 UHF open shell SCF:
 Using DIIS extrapolation, IDIIS=  1040.
 Integral symmetry usage will be decided dynamically.
 Keep R1 and R2 ints in memory in canonical form, NReq=8999601.
 IVT=       36430 IEndB=       36430 NGot=   655360000 MDV=   647198221
 LenX=   647198221 LenY=   647192155
 Requested convergence on RMS density matrix=1.00D-08 within 128 cycles.
 Requested convergence on MAX density matrix=1.00D-06.
 Requested convergence on             energy=1.00D-06.
 No special actions if energy rises.
 FoFCou: FMM=F IPFlag=           0 FMFlag=           0 FMFlg1=           0
         NFxFlg=           0 DoJE=F BraDBF=F KetDBF=F FulRan=T
         wScrn=  0.000000 ICntrl=     600 IOpCl=  0 I1Cent=           0 NGrid=           0
         NMat0=    1 NMatS0=   2850 NMatT0=    0 NMatD0=    1 NMtDS0=    0 NMtDT0=    0
 Symmetry not used in FoFCou.

 Cycle   1  Pass 1  IDiag  1:
 E= -435.036674090357    
 DIIS: error= 7.71D-02 at cycle   1 NSaved=   1.
 NSaved= 1 IEnMin= 1 EnMin= -435.036674090357     IErMin= 1 ErrMin= 7.71D-02
 ErrMax= 7.71D-02  0.00D+00 EMaxC= 1.00D-01 BMatC= 1.03D+00 BMatP= 1.03D+00
 IDIUse=3 WtCom= 2.29D-01 WtEn= 7.71D-01
 Coeff-Com:  0.100D+01
 Coeff-En:   0.100D+01
 Coeff:      0.100D+01
 Gap=     0.473 Goal=   None    Shift=    0.000
 Gap=     0.788 Goal=   None    Shift=    0.000
 GapD=    0.473 DampG=2.000 DampE=0.500 DampFc=1.0000 IDamp=-1.
 RMSDP=3.93D-03 MaxDP=6.44D-02              OVMax= 6.03D-02

 Cycle   2  Pass 1  IDiag  1:
 E= -435.108293157750     Delta-E=       -0.071619067393 Rises=F Damp=F
 DIIS: error= 1.30D-02 at cycle   2 NSaved=   2.
 NSaved= 2 IEnMin= 2 EnMin= -435.108293157750     IErMin= 2 ErrMin= 1.30D-02
 ErrMax= 1.30D-02  0.00D+00 EMaxC= 1.00D-01 BMatC= 7.04D-02 BMatP= 1.03D+00
 IDIUse=3 WtCom= 8.70D-01 WtEn= 1.30D-01
 Coeff-Com:  0.101D+00 0.899D+00
 Coeff-En:   0.000D+00 0.100D+01
 Coeff:      0.883D-01 0.912D+00
 Gap=     0.451 Goal=   None    Shift=    0.000
 Gap=     0.404 Goal=   None    Shift=    0.000
 RMSDP=1.49D-03 MaxDP=2.75D-02 DE=-7.16D-02 OVMax= 5.21D-02

 Cycle   3  Pass 1  IDiag  1:
 E= -435.118757289768     Delta-E=       -0.010464132018 Rises=F Damp=F
 DIIS: error= 7.09D-03 at cycle   3 NSaved=   3.
 NSaved= 3 IEnMin= 3 EnMin= -435.118757289768     IErMin= 3 ErrMin= 7.09D-03
 ErrMax= 7.09D-03  0.00D+00 EMaxC= 1.00D-01 BMatC= 2.12D-02 BMatP= 7.04D-02
 IDIUse=3 WtCom= 9.29D-01 WtEn= 7.09D-02
 Coeff-Com: -0.233D-01 0.331D+00 0.692D+00
 Coeff-En:   0.000D+00 0.000D+00 0.100D+01
 Coeff:     -0.217D-01 0.307D+00 0.714D+00
 Gap=     0.441 Goal=   None    Shift=    0.000
 Gap=     0.393 Goal=   None    Shift=    0.000
 RMSDP=4.84D-04 MaxDP=1.07D-02 DE=-1.05D-02 OVMax= 1.11D-02

 Cycle   4  Pass 1  IDiag  1:
 E= -435.122084345925     Delta-E=       -0.003327056156 Rises=F Damp=F
 DIIS: error= 1.42D-03 at cycle   4 NSaved=   4.
 NSaved= 4 IEnMin= 4 EnMin= -435.122084345925     IErMin= 4 ErrMin= 1.42D-03
 ErrMax= 1.42D-03  0.00D+00 EMaxC= 1.00D-01 BMatC= 3.99D-04 BMatP= 2.12D-02
 IDIUse=3 WtCom= 9.86D-01 WtEn= 1.42D-02
 Coeff-Com: -0.464D-02-0.589D-01-0.433D-01 0.111D+01
 Coeff-En:   0.000D+00 0.000D+00 0.000D+00 0.100D+01
 Coeff:     -0.457D-02-0.580D-01-0.427D-01 0.111D+01
 Gap=     0.441 Goal=   None    Shift=    0.000
 Gap=     0.392 Goal=   None    Shift=    0.000
 RMSDP=1.52D-04 MaxDP=2.02D-03 DE=-3.33D-03 OVMax= 4.99D-03

 Cycle   5  Pass 1  IDiag  1:
 E= -435.122261484570     Delta-E=       -0.000177138645 Rises=F Damp=F
 DIIS: error= 5.95D-04 at cycle   5 NSaved=   5.
 NSaved= 5 IEnMin= 5 EnMin= -435.122261484570     IErMin= 5 ErrMin= 5.95D-04
 ErrMax= 5.95D-04  0.00D+00 EMaxC= 1.00D-01 BMatC= 4.60D-05 BMatP= 3.99D-04
 IDIUse=3 WtCom= 9.94D-01 WtEn= 5.95D-03
 Coeff-Com:  0.381D-02-0.283D-01-0.744D-01-0.133D+00 0.123D+01
 Coeff-En:   0.000D+00 0.000D+00 0.000D+00 0.000D+00 0.100D+01
 Coeff:      0.378D-02-0.281D-01-0.740D-01-0.132D+00 0.123D+01
 Gap=     0.443 Goal=   None    Shift=    0.000
 Gap=     0.392 Goal=   None    Shift=    0.000
 RMSDP=6.51D-05 MaxDP=1.04D-03 DE=-1.77D-04 OVMax= 2.35D-03

 Cycle   6  Pass 1  IDiag  1:
 E= -435.122286897367     Delta-E=       -0.000025412798 Rises=F Damp=F
 DIIS: error= 1.48D-04 at cycle   6 NSaved=   6.
 NSaved= 6 IEnMin= 6 EnMin= -435.122286897367     IErMin= 6 ErrMin= 1.48D-04
 ErrMax= 1.48D-04  0.00D+00 EMaxC= 1.00D-01 BMatC= 1.95D-06 BMatP= 4.60D-05
 IDIUse=3 WtCom= 9.99D-01 WtEn= 1.48D-03
 Coeff-Com: -0.732D-03 0.972D-02 0.211D-01-0.203D-01-0.323D+00 0.131D+01
 Coeff-En:   0.000D+00 0.000D+00 0.000D+00 0.000D+00 0.000D+00 0.100D+01
 Coeff:     -0.731D-03 0.970D-02 0.211D-01-0.203D-01-0.322D+00 0.131D+01
 Gap=     0.444 Goal=   None    Shift=    0.000
 Gap=     0.392 Goal=   None    Shift=    0.000
 RMSDP=1.40D-05 MaxDP=2.58D-04 DE=-2.54D-05 OVMax= 5.30D-04

 Cycle   7  Pass 1  IDiag  1:
 E= -435.122287941515     Delta-E=       -0.000001044148 Rises=F Damp=F
 DIIS: error= 4.22D-05 at cycle   7 NSaved=   7.
 NSaved= 7 IEnMin= 7 EnMin= -435.122287941515     IErMin= 7 ErrMin= 4.22D-05
 ErrMax= 4.22D-05  0.00D+00 EMaxC= 1.00D-01 BMatC= 1.47D-07 BMatP= 1.95D-06
 IDIUse=1 WtCom= 1.00D+00 WtEn= 0.00D+00
 Coeff-Com: -0.272D-03 0.279D-02 0.612D-02 0.340D-02-0.103D+00 0.205D+00
 Coeff-Com:  0.886D+00
 Coeff:     -0.272D-03 0.279D-02 0.612D-02 0.340D-02-0.103D+00 0.205D+00
 Coeff:      0.886D+00
 Gap=     0.444 Goal=   None    Shift=    0.000
 Gap=     0.392 Goal=   None    Shift=    0.000
 RMSDP=2.27D-06 MaxDP=5.15D-05 DE=-1.04D-06 OVMax= 6.38D-05

 Cycle   8  Pass 1  IDiag  1:
 E= -435.122287983488     Delta-E=       -0.000000041973 Rises=F Damp=F
 DIIS: error= 1.16D-05 at cycle   8 NSaved=   8.
 NSaved= 8 IEnMin= 8 EnMin= -435.122287983488     IErMin= 8 ErrMin= 1.16D-05
 ErrMax= 1.16D-05  0.00D+00 EMaxC= 1.00D-01 BMatC= 2.03D-08 BMatP= 1.47D-07
 IDIUse=1 WtCom= 1.00D+00 WtEn= 0.00D+00
 Coeff-Com:  0.819D-04-0.115D-02-0.276D-02 0.318D-02 0.389D-01-0.169D+00
 Coeff-Com:  0.318D-01 0.110D+01
 Coeff:      0.819D-04-0.115D-02-0.276D-02 0.318D-02 0.389D-01-0.169D+00
 Coeff:      0.318D-01 0.110D+01
 Gap=     0.444 Goal=   None    Shift=    0.000
 Gap=     0.392 Goal=   None    Shift=    0.000
 RMSDP=1.13D-06 MaxDP=1.96D-05 DE=-4.20D-08 OVMax= 2.81D-05

 Cycle   9  Pass 1  IDiag  1:
 E= -435.122287990983     Delta-E=       -0.000000007495 Rises=F Damp=F
 DIIS: error= 4.17D-06 at cycle   9 NSaved=   9.
 NSaved= 9 IEnMin= 9 EnMin= -435.122287990983     IErMin= 9 ErrMin= 4.17D-06
 ErrMax= 4.17D-06  0.00D+00 EMaxC= 1.00D-01 BMatC= 2.05D-09 BMatP= 2.03D-08
 IDIUse=1 WtCom= 1.00D+00 WtEn= 0.00D+00
 Coeff-Com:  0.407D-04-0.490D-03-0.115D-02 0.338D-03 0.178D-01-0.555D-01
 Coeff-Com: -0.761D-01 0.246D+00 0.869D+00
 Coeff:      0.407D-04-0.490D-03-0.115D-02 0.338D-03 0.178D-01-0.555D-01
 Coeff:     -0.761D-01 0.246D+00 0.869D+00
 Gap=     0.444 Goal=   None    Shift=    0.000
 Gap=     0.392 Goal=   None    Shift=    0.000
 RMSDP=2.86D-07 MaxDP=5.99D-06 DE=-7.49D-09 OVMax= 6.94D-06

 Cycle  10  Pass 1  IDiag  1:
 E= -435.122287991584     Delta-E=       -0.000000000602 Rises=F Damp=F
 DIIS: error= 1.34D-06 at cycle  10 NSaved=  10.
 NSaved=10 IEnMin=10 EnMin= -435.122287991584     IErMin=10 ErrMin= 1.34D-06
 ErrMax= 1.34D-06  0.00D+00 EMaxC= 1.00D-01 BMatC= 1.20D-10 BMatP= 2.05D-09
 IDIUse=1 WtCom= 1.00D+00 WtEn= 0.00D+00
 Coeff-Com: -0.102D-04 0.144D-03 0.335D-03-0.373D-03-0.481D-02 0.193D-01
 Coeff-Com:  0.327D-02-0.115D+00-0.913D-01 0.119D+01
 Coeff:     -0.102D-04 0.144D-03 0.335D-03-0.373D-03-0.481D-02 0.193D-01
 Coeff:      0.327D-02-0.115D+00-0.913D-01 0.119D+01
 Gap=     0.444 Goal=   None    Shift=    0.000
 Gap=     0.392 Goal=   None    Shift=    0.000
 RMSDP=1.08D-07 MaxDP=2.10D-06 DE=-6.02D-10 OVMax= 4.93D-06

 Cycle  11  Pass 1  IDiag  1:
 E= -435.122287991669     Delta-E=       -0.000000000084 Rises=F Damp=F
 DIIS: error= 1.34D-06 at cycle  11 NSaved=  11.
 NSaved=11 IEnMin=11 EnMin= -435.122287991669     IErMin=11 ErrMin= 1.34D-06
 ErrMax= 1.34D-06  0.00D+00 EMaxC= 1.00D-01 BMatC= 2.67D-11 BMatP= 1.20D-10
 IDIUse=1 WtCom= 1.00D+00 WtEn= 0.00D+00
 Coeff-Com:  0.167D-05-0.270D-04-0.645D-04 0.112D-03 0.852D-03-0.399D-02
 Coeff-Com:  0.108D-02 0.304D-01-0.134D-01-0.401D+00 0.139D+01
 Coeff:      0.167D-05-0.270D-04-0.645D-04 0.112D-03 0.852D-03-0.399D-02
 Coeff:      0.108D-02 0.304D-01-0.134D-01-0.401D+00 0.139D+01
 Gap=     0.444 Goal=   None    Shift=    0.000
 Gap=     0.392 Goal=   None    Shift=    0.000
 RMSDP=5.96D-08 MaxDP=2.27D-06 DE=-8.45D-11 OVMax= 5.39D-06

 Cycle  12  Pass 1  IDiag  1:
 E= -435.122287991704     Delta-E=       -0.000000000035 Rises=F Damp=F
 DIIS: error= 1.34D-06 at cycle  12 NSaved=  12.
 NSaved=12 IEnMin=12 EnMin= -435.122287991704     IErMin=12 ErrMin= 1.34D-06
 ErrMax= 1.34D-06  0.00D+00 EMaxC= 1.00D-01 BMatC= 2.01D-11 BMatP= 2.67D-11
 IDIUse=1 WtCom= 1.00D+00 WtEn= 0.00D+00
 Coeff-Com:  0.313D-06-0.405D-05-0.663D-05 0.282D-05 0.114D-03-0.375D-03
 Coeff-Com: -0.511D-03 0.195D-02 0.722D-02 0.992D-02-0.346D+00 0.133D+01
 Coeff:      0.313D-06-0.405D-05-0.663D-05 0.282D-05 0.114D-03-0.375D-03
 Coeff:     -0.511D-03 0.195D-02 0.722D-02 0.992D-02-0.346D+00 0.133D+01
 Gap=     0.444 Goal=   None    Shift=    0.000
 Gap=     0.392 Goal=   None    Shift=    0.000
 RMSDP=5.01D-08 MaxDP=2.25D-06 DE=-3.51D-11 OVMax= 5.37D-06

 Cycle  13  Pass 1  IDiag  1:
 E= -435.122287991737     Delta-E=       -0.000000000033 Rises=F Damp=F
 DIIS: error= 1.34D-06 at cycle  13 NSaved=  13.
 NSaved=13 IEnMin=13 EnMin= -435.122287991737     IErMin=13 ErrMin= 1.34D-06
 ErrMax= 1.34D-06  0.00D+00 EMaxC= 1.00D-01 BMatC= 1.95D-11 BMatP= 2.01D-11
 IDIUse=1 WtCom= 1.00D+00 WtEn= 0.00D+00
 Coeff-Com: -0.152D-06 0.226D-05 0.532D-05-0.810D-05-0.696D-04 0.320D-03
 Coeff-Com: -0.609D-04-0.231D-02-0.611D-03 0.298D-01-0.564D-01-0.239D+00
 Coeff-Com:  0.127D+01
 Coeff:     -0.152D-06 0.226D-05 0.532D-05-0.810D-05-0.696D-04 0.320D-03
 Coeff:     -0.609D-04-0.231D-02-0.611D-03 0.298D-01-0.564D-01-0.239D+00
 Coeff:      0.127D+01
 Gap=     0.444 Goal=   None    Shift=    0.000
 Gap=     0.392 Goal=   None    Shift=    0.000
 RMSDP=4.75D-08 MaxDP=2.18D-06 DE=-3.30D-11 OVMax= 5.21D-06

 Cycle  14  Pass 1  IDiag  1:
 E= -435.122287991769     Delta-E=       -0.000000000032 Rises=F Damp=F
 DIIS: error= 1.34D-06 at cycle  14 NSaved=  14.
 NSaved=14 IEnMin=14 EnMin= -435.122287991769     IErMin=14 ErrMin= 1.34D-06
 ErrMax= 1.34D-06  0.00D+00 EMaxC= 1.00D-01 BMatC= 1.94D-11 BMatP= 1.95D-11
 IDIUse=1 WtCom= 1.00D+00 WtEn= 0.00D+00
 Coeff-Com: -0.482D-07 0.693D-06 0.134D-05-0.182D-05-0.191D-04 0.811D-04
 Coeff-Com:  0.133D-04-0.533D-03-0.734D-03 0.491D-02 0.173D-01-0.156D+00
 Coeff-Com:  0.256D+00 0.878D+00
 Coeff:     -0.482D-07 0.693D-06 0.134D-05-0.182D-05-0.191D-04 0.811D-04
 Coeff:      0.133D-04-0.533D-03-0.734D-03 0.491D-02 0.173D-01-0.156D+00
 Coeff:      0.256D+00 0.878D+00
 Gap=     0.444 Goal=   None    Shift=    0.000
 Gap=     0.392 Goal=   None    Shift=    0.000
 RMSDP=3.35D-08 MaxDP=1.54D-06 DE=-3.23D-11 OVMax= 3.68D-06

 Cycle  15  Pass 1  IDiag  1:
 E= -435.122287991791     Delta-E=       -0.000000000022 Rises=F Damp=F
 DIIS: error= 1.34D-06 at cycle  15 NSaved=  15.
 NSaved=15 IEnMin=15 EnMin= -435.122287991791     IErMin=15 ErrMin= 1.34D-06
 ErrMax= 1.34D-06  0.00D+00 EMaxC= 1.00D-01 BMatC= 1.94D-11 BMatP= 1.94D-11
 IDIUse=1 WtCom= 1.00D+00 WtEn= 0.00D+00
 Coeff-Com:  0.545D-07-0.784D-06-0.186D-05 0.258D-05 0.244D-04-0.110D-03
 Coeff-Com:  0.981D-05 0.794D-03 0.309D-03-0.964D-02 0.135D-01 0.101D+00
 Coeff-Com: -0.427D+00-0.182D+00 0.150D+01
 Coeff:      0.545D-07-0.784D-06-0.186D-05 0.258D-05 0.244D-04-0.110D-03
 Coeff:      0.981D-05 0.794D-03 0.309D-03-0.964D-02 0.135D-01 0.101D+00
 Coeff:     -0.427D+00-0.182D+00 0.150D+01
 Gap=     0.444 Goal=   None    Shift=    0.000
 Gap=     0.392 Goal=   None    Shift=    0.000
 RMSDP=6.08D-08 MaxDP=2.81D-06 DE=-2.18D-11 OVMax= 6.69D-06

 Cycle  16  Pass 1  IDiag  1:
 E= -435.122287991833     Delta-E=       -0.000000000043 Rises=F Damp=F
 DIIS: error= 1.34D-06 at cycle  16 NSaved=  16.
 NSaved=16 IEnMin=16 EnMin= -435.122287991833     IErMin=16 ErrMin= 1.34D-06
 ErrMax= 1.34D-06  0.00D+00 EMaxC= 1.00D-01 BMatC= 1.94D-11 BMatP= 1.94D-11
 IDIUse=1 WtCom= 1.00D+00 WtEn= 0.00D+00
 Large coefficients: NSaved= 16 BigCof=    0.00 CofMax=   10.00 Det=-2.47D-16
 Inversion failed.  Reducing to 15 matrices.
 Coeff-Com:  0.280D-06 0.131D-05-0.350D-05-0.117D-04 0.982D-04-0.103D-03
 Coeff-Com: -0.107D-02 0.107D-02 0.181D-01-0.769D-01-0.377D-01 0.101D+01
 Coeff-Com: -0.106D+01-0.557D+01 0.671D+01
 Coeff:      0.280D-06 0.131D-05-0.350D-05-0.117D-04 0.982D-04-0.103D-03
 Coeff:     -0.107D-02 0.107D-02 0.181D-01-0.769D-01-0.377D-01 0.101D+01
 Coeff:     -0.106D+01-0.557D+01 0.671D+01
 Gap=     0.444 Goal=   None    Shift=    0.000
 Gap=     0.392 Goal=   None    Shift=    0.000
 RMSDP=3.49D-07 MaxDP=1.61D-05 DE=-4.25D-11 OVMax= 3.84D-05

 Cycle  17  Pass 1  IDiag  1:
 E= -435.122287992059     Delta-E=       -0.000000000225 Rises=F Damp=F
 DIIS: error= 1.34D-06 at cycle  17 NSaved=  16.
 NSaved=16 IEnMin=16 EnMin= -435.122287992059     IErMin=16 ErrMin= 1.34D-06
 ErrMax= 1.34D-06  0.00D+00 EMaxC= 1.00D-01 BMatC= 1.94D-11 BMatP= 1.94D-11
 IDIUse=1 WtCom= 1.00D+00 WtEn= 0.00D+00
 Large coefficients: NSaved= 16 BigCof=    0.00 CofMax=   10.00 Det=-6.30D-17
 Inversion failed.  Reducing to 15 matrices.
 Large coefficients: NSaved= 15 BigCof=   51.99 CofMax=   10.00 Det=-6.41D-17
 Inversion failed.  Reducing to 14 matrices.
 Large coefficients: NSaved= 14 BigCof=   43.75 CofMax=   10.00 Det=-8.85D-17
 Inversion failed.  Reducing to 13 matrices.
 Large coefficients: NSaved= 13 BigCof=   43.91 CofMax=   10.00 Det=-8.86D-17
 Inversion failed.  Reducing to 12 matrices.
 Large coefficients: NSaved= 12 BigCof=   42.89 CofMax=   10.00 Det=-8.94D-17
 Inversion failed.  Reducing to 11 matrices.
 Large coefficients: NSaved= 11 BigCof=   42.93 CofMax=   10.00 Det=-8.94D-17
 Inversion failed.  Reducing to 10 matrices.
 Large coefficients: NSaved= 10 BigCof=   42.90 CofMax=   10.00 Det=-8.94D-17
 Inversion failed.  Reducing to  9 matrices.
 Large coefficients: NSaved=  9 BigCof=   42.79 CofMax=   10.00 Det=-8.95D-17
 Inversion failed.  Reducing to  8 matrices.
 Large coefficients: NSaved=  8 BigCof=   37.91 CofMax=   10.00 Det=-9.88D-17
 Inversion failed.  Reducing to  7 matrices.
 Large coefficients: NSaved=  7 BigCof=   37.85 CofMax=   10.00 Det=-1.00D-16
 Inversion failed.  Reducing to  6 matrices.
 Large coefficients: NSaved=  6 BigCof=   29.89 CofMax=   10.00 Det=-1.18D-16
 Inversion failed.  Reducing to  5 matrices.
 Large coefficients: NSaved=  5 BigCof=   30.85 CofMax=   10.00 Det=-1.23D-16
 Inversion failed.  Reducing to  4 matrices.
 Large coefficients: NSaved=  4 BigCof=   21.89 CofMax=   10.00 Det=-2.07D-16
 Inversion failed.  Reducing to  3 matrices.
 Large coefficients: NSaved=  3 BigCof=   11.93 CofMax=   10.00 Det=-3.83D-16
 Inversion failed.  Reducing to  2 matrices.
 Large coefficients: NSaved=  2 BigCof=   10.16 CofMax=   10.00 Det=-1.11D-15
 Coeff-Com: -0.916D+01 0.102D+02
 Coeff:     -0.916D+01 0.102D+02
 Gap=     0.444 Goal=   None    Shift=    0.000
 Gap=     0.392 Goal=   None    Shift=    0.000
 RMSDP=3.23D-06 MaxDP=1.49D-04 DE=-2.25D-10 OVMax= 3.55D-04

 Cycle  18  Pass 1  IDiag  1:
 E= -435.122287994159     Delta-E=       -0.000000002101 Rises=F Damp=F
 DIIS: error= 1.33D-06 at cycle  18 NSaved=   3.
 NSaved= 3 IEnMin= 3 EnMin= -435.122287994159     IErMin= 3 ErrMin= 1.33D-06
 ErrMax= 1.33D-06  0.00D+00 EMaxC= 1.00D-01 BMatC= 1.92D-11 BMatP= 1.94D-11
 IDIUse=1 WtCom= 1.00D+00 WtEn= 0.00D+00
 Coeff-Com:  0.129D+01-0.518D+01 0.488D+01
 Coeff:      0.129D+01-0.518D+01 0.488D+01
 Gap=     0.444 Goal=   None    Shift=    0.000
 Gap=     0.392 Goal=   None    Shift=    0.000
 RMSDP=1.21D-05 MaxDP=5.59D-04 DE=-2.10D-09 OVMax= 1.33D-03

 Cycle  19  Pass 1  IDiag  1:
 E= -435.122288001947     Delta-E=       -0.000000007788 Rises=F Damp=F
 DIIS: error= 1.31D-06 at cycle  19 NSaved=   4.
 NSaved= 4 IEnMin= 4 EnMin= -435.122288001947     IErMin= 4 ErrMin= 1.31D-06
 ErrMax= 1.31D-06  0.00D+00 EMaxC= 1.00D-01 BMatC= 1.91D-11 BMatP= 1.92D-11
 IDIUse=1 WtCom= 1.00D+00 WtEn= 0.00D+00
 Coeff-Com:  0.389D+01-0.737D+01 0.407D+01 0.412D+00
 Coeff:      0.389D+01-0.737D+01 0.407D+01 0.412D+00
 Gap=     0.444 Goal=   None    Shift=    0.000
 Gap=     0.392 Goal=   None    Shift=    0.000
 RMSDP=2.79D-06 MaxDP=1.29D-04 DE=-7.79D-09 OVMax= 3.07D-04

 Cycle  20  Pass 1  IDiag  1:
 E= -435.122288003715     Delta-E=       -0.000000001768 Rises=F Damp=F
 DIIS: error= 1.30D-06 at cycle  20 NSaved=   5.
 NSaved= 5 IEnMin= 5 EnMin= -435.122288003715     IErMin= 5 ErrMin= 1.30D-06
 ErrMax= 1.30D-06  0.00D+00 EMaxC= 1.00D-01 BMatC= 1.90D-11 BMatP= 1.91D-11
 IDIUse=1 WtCom= 1.00D+00 WtEn= 0.00D+00
 Large coefficients: NSaved=  5 BigCof=   15.08 CofMax=   10.00 Det=-2.96D-16
 Inversion failed.  Reducing to  4 matrices.
 Coeff-Com: -0.163D+01 0.222D+01-0.330D+01 0.371D+01
 Coeff:     -0.163D+01 0.222D+01-0.330D+01 0.371D+01
 Gap=     0.444 Goal=   None    Shift=    0.000
 Gap=     0.392 Goal=   None    Shift=    0.000
 RMSDP=5.66D-06 MaxDP=2.61D-04 DE=-1.77D-09 OVMax= 6.23D-04

 Cycle  21  Pass 1  IDiag  1:
 E= -435.122288007279     Delta-E=       -0.000000003564 Rises=F Damp=F
 DIIS: error= 1.29D-06 at cycle  21 NSaved=   5.
 NSaved= 5 IEnMin= 5 EnMin= -435.122288007279     IErMin= 5 ErrMin= 1.29D-06
 ErrMax= 1.29D-06  0.00D+00 EMaxC= 1.00D-01 BMatC= 1.83D-11 BMatP= 1.90D-11
 IDIUse=1 WtCom= 1.00D+00 WtEn= 0.00D+00
 Large coefficients: NSaved=  5 BigCof=   18.68 CofMax=   10.00 Det=-1.14D-14
 Inversion failed.  Reducing to  4 matrices.
 Large coefficients: NSaved=  4 BigCof=   13.83 CofMax=   10.00 Det=-1.25D-14
 Inversion failed.  Reducing to  3 matrices.
 Large coefficients: NSaved=  3 BigCof=   11.33 CofMax=   10.00 Det=-1.31D-14
 Inversion failed.  Reducing to  2 matrices.
 Coeff-Com: -0.334D+01 0.434D+01
 Coeff:     -0.334D+01 0.434D+01
 Gap=     0.444 Goal=   None    Shift=    0.000
 Gap=     0.392 Goal=   None    Shift=    0.000
 RMSDP=1.89D-05 MaxDP=8.74D-04 DE=-3.56D-09 OVMax= 2.08D-03

 Cycle  22  Pass 1  IDiag  1:
 E= -435.122288018940     Delta-E=       -0.000000011661 Rises=F Damp=F
 DIIS: error= 1.25D-06 at cycle  22 NSaved=   3.
 NSaved= 3 IEnMin= 3 EnMin= -435.122288018940     IErMin= 3 ErrMin= 1.25D-06
 ErrMax= 1.25D-06  0.00D+00 EMaxC= 1.00D-01 BMatC= 2.01D-11 BMatP= 1.83D-11
 IDIUse=1 WtCom= 1.00D+00 WtEn= 0.00D+00
 Large coefficients: NSaved=  3 BigCof=   12.14 CofMax=   10.00 Det=-2.76D-14
 Inversion failed.  Reducing to  2 matrices.
 Coeff-Com:  0.910D+00 0.901D-01
 Coeff:      0.910D+00 0.901D-01
 Gap=     0.444 Goal=   None    Shift=    0.000
 Gap=     0.392 Goal=   None    Shift=    0.000
 RMSDP=1.72D-05 MaxDP=7.94D-04 DE=-1.17D-08 OVMax= 1.89D-03

 Cycle  23  Pass 1  IDiag  1:
 E= -435.122288008366     Delta-E=        0.000000010574 Rises=F Damp=F
 DIIS: error= 1.28D-06 at cycle  23 NSaved=   3.
 NSaved= 3 IEnMin= 2 EnMin= -435.122288018940     IErMin= 2 ErrMin= 1.25D-06
 ErrMax= 1.28D-06  0.00D+00 EMaxC= 1.00D-01 BMatC= 1.78D-11 BMatP= 1.83D-11
 IDIUse=1 WtCom= 1.00D+00 WtEn= 0.00D+00
 Coeff-Com: -0.506D+00 0.293D+00 0.121D+01
 Coeff:     -0.506D+00 0.293D+00 0.121D+01
 Gap=     0.444 Goal=   None    Shift=    0.000
 Gap=     0.392 Goal=   None    Shift=    0.000
 RMSDP=5.95D-06 MaxDP=2.75D-04 DE= 1.06D-08 OVMax= 6.55D-04

 Cycle  24  Pass 1  IDiag  1:
 E= -435.122288012065     Delta-E=       -0.000000003699 Rises=F Damp=F
 DIIS: error= 1.27D-06 at cycle  24 NSaved=   4.
 NSaved= 4 IEnMin= 2 EnMin= -435.122288018940     IErMin= 2 ErrMin= 1.25D-06
 ErrMax= 1.27D-06  0.00D+00 EMaxC= 1.00D-01 BMatC= 1.75D-11 BMatP= 1.78D-11
 IDIUse=1 WtCom= 1.00D+00 WtEn= 0.00D+00
 Coeff-Com: -0.440D+01 0.175D+01-0.200D+01 0.565D+01
 Coeff:     -0.440D+01 0.175D+01-0.200D+01 0.565D+01
 Gap=     0.444 Goal=   None    Shift=    0.000
 Gap=     0.392 Goal=   None    Shift=    0.000
 RMSDP=6.55D-05 MaxDP=3.03D-03 DE=-3.70D-09 OVMax= 7.20D-03

 Cycle  25  Pass 1  IDiag  1:
 E= -435.122288050137     Delta-E=       -0.000000038073 Rises=F Damp=F
 DIIS: error= 3.86D-06 at cycle  25 NSaved=   5.
 NSaved= 5 IEnMin= 5 EnMin= -435.122288050137     IErMin= 2 ErrMin= 1.25D-06
 ErrMax= 3.86D-06  0.00D+00 EMaxC= 1.00D-01 BMatC= 2.90D-10 BMatP= 1.75D-11
 IDIUse=1 WtCom= 1.00D+00 WtEn= 0.00D+00
 Coeff-Com: -0.734D+01 0.269D-01 0.696D+00 0.732D+01 0.297D+00
 Coeff:     -0.734D+01 0.269D-01 0.696D+00 0.732D+01 0.297D+00
 Gap=     0.444 Goal=   None    Shift=    0.000
 Gap=     0.392 Goal=   None    Shift=    0.000
 RMSDP=6.65D-06 MaxDP=3.08D-04 DE=-3.81D-08 OVMax= 7.31D-04

 Cycle  26  Pass 1  IDiag  1:
 E= -435.122288053750     Delta-E=       -0.000000003612 Rises=F Damp=F
 DIIS: error= 3.81D-06 at cycle  26 NSaved=   6.
 NSaved= 6 IEnMin= 6 EnMin= -435.122288053750     IErMin= 2 ErrMin= 1.25D-06
 ErrMax= 3.81D-06  0.00D+00 EMaxC= 1.00D-01 BMatC= 2.85D-10 BMatP= 1.75D-11
 IDIUse=1 WtCom= 1.00D+00 WtEn= 0.00D+00
 Coeff-Com: -0.379D+01-0.300D+00 0.690D+00 0.416D+01-0.454D+01 0.478D+01
 Coeff:     -0.379D+01-0.300D+00 0.690D+00 0.416D+01-0.454D+01 0.478D+01
 Gap=     0.444 Goal=   None    Shift=    0.000
 Gap=     0.392 Goal=   None    Shift=    0.000
 RMSDP=3.10D-06 MaxDP=1.43D-04 DE=-3.61D-09 OVMax= 3.41D-04

 Cycle  27  Pass 1  IDiag  1:
 E= -435.122288052135     Delta-E=        0.000000001614 Rises=F Damp=F
 DIIS: error= 1.12D-06 at cycle  27 NSaved=   7.
 NSaved= 7 IEnMin= 6 EnMin= -435.122288053750     IErMin= 7 ErrMin= 1.12D-06
 ErrMax= 1.12D-06  0.00D+00 EMaxC= 1.00D-01 BMatC= 1.66D-11 BMatP= 1.75D-11
 IDIUse=1 WtCom= 1.00D+00 WtEn= 0.00D+00
 Large coefficients: NSaved=  7 BigCof=   51.50 CofMax=   10.00 Det=-2.08D-15
 Inversion failed.  Reducing to  6 matrices.
 Large coefficients: NSaved=  6 BigCof=   39.74 CofMax=   10.00 Det=-2.76D-15
 Inversion failed.  Reducing to  5 matrices.
 Large coefficients: NSaved=  5 BigCof=   11.92 CofMax=   10.00 Det=-8.28D-15
 Inversion failed.  Reducing to  4 matrices.
 Coeff-Com: -0.151D+01 0.307D+00 0.705D-01 0.214D+01
 Coeff:     -0.151D+01 0.307D+00 0.705D-01 0.214D+01
 Gap=     0.444 Goal=   None    Shift=    0.000
 Gap=     0.392 Goal=   None    Shift=    0.000
 RMSDP=8.66D-05 MaxDP=4.01D-03 DE= 1.61D-09 OVMax= 9.53D-03

 Cycle  28  Pass 1  IDiag  1:
 E= -435.122288094554     Delta-E=       -0.000000042419 Rises=F Damp=F
 DIIS: error= 1.11D-05 at cycle  28 NSaved=   5.
 NSaved= 5 IEnMin= 5 EnMin= -435.122288094554     IErMin= 4 ErrMin= 1.12D-06
 ErrMax= 1.11D-05  0.00D+00 EMaxC= 1.00D-01 BMatC= 2.34D-09 BMatP= 1.66D-11
 IDIUse=1 WtCom= 1.00D+00 WtEn= 0.00D+00
 Large coefficients: NSaved=  5 BigCof=   15.59 CofMax=   10.00 Det=-1.11D-14
 Inversion failed.  Reducing to  4 matrices.
 Large coefficients: NSaved=  4 BigCof=   11.63 CofMax=   10.00 Det=-1.29D-14
 Inversion failed.  Reducing to  3 matrices.
 Coeff-Com: -0.523D+01 0.430D+01 0.193D+01
 Coeff:     -0.523D+01 0.430D+01 0.193D+01
 Gap=     0.444 Goal=   None    Shift=    0.000
 Gap=     0.392 Goal=   None    Shift=    0.000
 RMSDP=6.46D-05 MaxDP=3.00D-03 DE=-4.24D-08 OVMax= 7.10D-03

 Cycle  29  Pass 1  IDiag  1:
 E= -435.122288121525     Delta-E=       -0.000000026971 Rises=F Damp=F
 DIIS: error= 7.44D-06 at cycle  29 NSaved=   4.
 NSaved= 4 IEnMin= 4 EnMin= -435.122288121525     IErMin= 2 ErrMin= 1.12D-06
 ErrMax= 7.44D-06  0.00D+00 EMaxC= 1.00D-01 BMatC= 1.05D-09 BMatP= 1.66D-11
 IDIUse=1 WtCom= 1.00D+00 WtEn= 0.00D+00
 Coeff-Com: -0.322D+01 0.262D+01 0.360D+00 0.124D+01
 Coeff:     -0.322D+01 0.262D+01 0.360D+00 0.124D+01
 Gap=     0.444 Goal=   None    Shift=    0.000
 Gap=     0.392 Goal=   None    Shift=    0.000
 RMSDP=5.77D-05 MaxDP=2.68D-03 DE=-2.70D-08 OVMax= 6.34D-03

 Cycle  30  Pass 1  IDiag  1:
 E= -435.122288141199     Delta-E=       -0.000000019674 Rises=F Damp=F
 DIIS: error= 1.11D-05 at cycle  30 NSaved=   5.
 NSaved= 5 IEnMin= 5 EnMin= -435.122288141199     IErMin= 2 ErrMin= 1.12D-06
 ErrMax= 1.11D-05  0.00D+00 EMaxC= 1.00D-01 BMatC= 2.34D-09 BMatP= 1.66D-11
 IDIUse=1 WtCom= 1.00D+00 WtEn= 0.00D+00
 Coeff-Com: -0.322D+01 0.262D+01 0.358D+00 0.124D+01 0.136D-02
 Coeff:     -0.322D+01 0.262D+01 0.358D+00 0.124D+01 0.136D-02
 Gap=     0.444 Goal=   None    Shift=    0.000
 Gap=     0.392 Goal=   None    Shift=    0.000
 RMSDP=2.62D-08 MaxDP=1.21D-06 DE=-1.97D-08 OVMax= 2.88D-06

 Cycle  31  Pass 1  IDiag  1:
 E= -435.122288141193     Delta-E=        0.000000000006 Rises=F Damp=F
 DIIS: error= 1.11D-05 at cycle  31 NSaved=   6.
 NSaved= 6 IEnMin= 5 EnMin= -435.122288141199     IErMin= 2 ErrMin= 1.12D-06
 ErrMax= 1.11D-05  0.00D+00 EMaxC= 1.00D-01 BMatC= 2.33D-09 BMatP= 1.66D-11
 IDIUse=1 WtCom= 1.00D+00 WtEn= 0.00D+00
 Large coefficients: NSaved=  6 BigCof=  916.42 CofMax=   10.00 Det=-6.66D-18
 Inversion failed.  Reducing to  5 matrices.
 Large coefficients: NSaved=  5 BigCof=  868.06 CofMax=   10.00 Det=-8.36D-18
 Inversion failed.  Reducing to  4 matrices.
 Large coefficients: NSaved=  4 BigCof=  395.09 CofMax=   10.00 Det=-4.44D-17
 Inversion failed.  Reducing to  3 matrices.
 Large coefficients: NSaved=  3 BigCof=  484.26 CofMax=   10.00 Det=-6.70D-17
 Inversion failed.  Reducing to  2 matrices.
 Large coefficients: NSaved=  2 BigCof=  388.66 CofMax=   10.00 Det=-1.55D-14
 Coeff-Com: -0.388D+03 0.389D+03
 Coeff:     -0.388D+03 0.389D+03
 Gap=     0.444 Goal=   None    Shift=    0.000
 Gap=     0.392 Goal=   None    Shift=    0.000
 RMSDP=1.01D-05 MaxDP=4.70D-04 DE= 5.68D-12 OVMax= 1.11D-03

 Cycle  32  Pass 1  IDiag  1:
 E= -435.122288138480     Delta-E=        0.000000002713 Rises=F Damp=F
 DIIS: error= 6.73D-07 at cycle  32 NSaved=   3.
 NSaved= 3 IEnMin= 1 EnMin= -435.122288141199     IErMin= 3 ErrMin= 6.73D-07
 ErrMax= 6.73D-07  0.00D+00 EMaxC= 1.00D-01 BMatC= 4.95D-12 BMatP= 2.33D-09
 IDIUse=1 WtCom= 1.00D+00 WtEn= 0.00D+00
 Large coefficients: NSaved=  3 BigCof=  261.69 CofMax=   10.00 Det=-1.99D-18
 Inversion failed.  Reducing to  2 matrices.
 Coeff-Com: -0.804D-02 0.101D+01
 Coeff:     -0.804D-02 0.101D+01
 Gap=     0.444 Goal=   None    Shift=    0.000
 Gap=     0.392 Goal=   None    Shift=    0.000
 RMSDP=6.46D-08 MaxDP=3.00D-06 DE= 2.71D-09 OVMax= 7.09D-06

 Cycle  33  Pass 1  IDiag  1:
 E= -435.122288138460     Delta-E=        0.000000000020 Rises=F Damp=F
 DIIS: error= 6.71D-07 at cycle  33 NSaved=   3.
 NSaved= 3 IEnMin= 1 EnMin= -435.122288141193     IErMin= 3 ErrMin= 6.71D-07
 ErrMax= 6.71D-07  0.00D+00 EMaxC= 1.00D-01 BMatC= 4.83D-12 BMatP= 4.95D-12
 IDIUse=1 WtCom= 1.00D+00 WtEn= 0.00D+00
 Coeff-Com: -0.506D-02 0.638D+00 0.368D+00
 Coeff:     -0.506D-02 0.638D+00 0.368D+00
 Gap=     0.444 Goal=   None    Shift=    0.000
 Gap=     0.392 Goal=   None    Shift=    0.000
 RMSDP=6.45D-09 MaxDP=2.98D-07 DE= 2.02D-11 OVMax= 7.09D-07

 SCF Done:  E(UHF) =  -435.122288138     A.U. after   33 cycles
            NFock= 33  Conv=0.65D-08     -V/T= 2.0031
 <Sx>= 0.0000 <Sy>= 0.0000 <Sz>= 0.5000 <S**2>= 0.7527 S= 0.5013
 <L.S>= 0.000000000000E+00
 KE= 4.337926474599D+02 PE=-1.306210978041D+03 EE= 2.977542885490D+02
 Annihilation of the first spin contaminant:
 S**2 before annihilation     0.7527,   after     0.7500
 Leave Link  502 at Sat Mar  4 13:43:45 2017, MaxMem=   655360000 cpu:         3.8
 (Enter /mnt/software/gaussian/g09/l801.exe)
 Range of M.O.s used for correlation:     1    75
 NBasis=    75 NAE=    21 NBE=    20 NFC=     0 NFV=     0
 NROrb=     75 NOA=    21 NOB=    20 NVA=    54 NVB=    55
 Leave Link  801 at Sat Mar  4 13:43:45 2017, MaxMem=   655360000 cpu:         0.1
 (Enter /mnt/software/gaussian/g09/l1002.exe)
 Minotr:  UHF open shell wavefunction.
          Direct CPHF calculation.
          Differentiating once with respect to electric field.
                with respect to dipole field.
          Electric field/nuclear overlap derivatives assumed to be zero.
          Requested convergence is 1.0D-08 RMS, and 1.0D-07 maximum.
          Secondary convergence is 1.0D-12 RMS, and 1.0D-12 maximum.
          NewPWx=F KeepS1=T KeepF1=T KeepIn=T MapXYZ=F SortEE=F KeepMc=T.
          MDV=     655359806 using IRadAn=       2.
 Keep R1 and R2 ints in memory in canonical form, NReq=8971622.
 FoFCou: FMM=F IPFlag=           0 FMFlag=           0 FMFlg1=           0
         NFxFlg=           0 DoJE=F BraDBF=F KetDBF=F FulRan=T
         wScrn=  0.000000 ICntrl=     600 IOpCl=  0 I1Cent=           0 NGrid=           0
         NMat0=    1 NMatS0=   2850 NMatT0=    0 NMatD0=    1 NMtDS0=    0 NMtDT0=    0
 Symmetry not used in FoFCou.
          Solving linear equations simultaneously, MaxMat=       0.
          There are     3 degrees of freedom in the 1st order CPHF.  IDoFFX=0 NUNeed=     3.
      3 vectors produced by pass  0 Test12= 7.45D-14 3.33D-08 XBig12= 4.66D+00 6.95D-01.
 AX will form     3 AO Fock derivatives at one time.
      3 vectors produced by pass  1 Test12= 7.45D-14 3.33D-08 XBig12= 3.30D-01 1.09D-01.
      3 vectors produced by pass  2 Test12= 7.45D-14 3.33D-08 XBig12= 4.77D-02 7.08D-02.
      3 vectors produced by pass  3 Test12= 7.45D-14 3.33D-08 XBig12= 2.34D-03 1.61D-02.
      3 vectors produced by pass  4 Test12= 7.45D-14 3.33D-08 XBig12= 4.76D-05 1.62D-03.
      3 vectors produced by pass  5 Test12= 7.45D-14 3.33D-08 XBig12= 1.38D-06 2.63D-04.
      3 vectors produced by pass  6 Test12= 7.45D-14 3.33D-08 XBig12= 5.15D-08 6.95D-05.
      3 vectors produced by pass  7 Test12= 7.45D-14 3.33D-08 XBig12= 3.24D-09 4.55D-05.
      3 vectors produced by pass  8 Test12= 7.45D-14 3.33D-08 XBig12= 1.25D-10 2.45D-06.
      3 vectors produced by pass  9 Test12= 7.45D-14 3.33D-08 XBig12= 2.57D-12 1.07D-06.
      3 vectors produced by pass 10 Test12= 7.45D-14 3.33D-08 XBig12= 1.81D-13 1.45D-07.
 InvSVY:  IOpt=1 It=  1 EMax= 8.88D-16
 Solved reduced A of dimension    33 with     3 vectors.
 End of Minotr F.D. properties file   721 does not exist.
 End of Minotr F.D. properties file   722 does not exist.
 End of Minotr F.D. properties file   788 does not exist.
 Leave Link 1002 at Sat Mar  4 13:43:45 2017, MaxMem=   655360000 cpu:         3.1
 (Enter /mnt/software/gaussian/g09/l1101.exe)
 Using compressed storage, NAtomX=     5.
 Will process      6 centers per pass.
 Leave Link 1101 at Sat Mar  4 13:43:46 2017, MaxMem=   655360000 cpu:         0.6
 (Enter /mnt/software/gaussian/g09/l1102.exe)
 Symmetrizing basis deriv contribution to polar:
 IMax=3 JMax=2 DiffMx= 0.00D+00
 Leave Link 1102 at Sat Mar  4 13:43:46 2017, MaxMem=   655360000 cpu:         0.2
 (Enter /mnt/software/gaussian/g09/l1110.exe)
 Forming Gx(P) for the SCF density, NAtomX=     5.
 Integral derivatives from FoFJK, PRISM(SPDF).
 Do as many integral derivatives as possible in FoFJK.
 G2DrvN: MDV=     655359856.
 G2DrvN: will do     6 centers at a time, making    1 passes.
 PxScal for G2LodP:  IOpCl= 1 ISclPx=1 IMOff=     1 NMtTot=     4 NTT=    2850 ScalPx= 1.33D+00
 Calling FoFCou, ICntrl=  3107 FMM=F I1Cent=   0 AccDes= 0.00D+00.
 FoFJK:  IHMeth= 1 ICntrl=    3107 DoSepK=F KAlg= 0 I1Cent=   0 FoldK=F
 IRaf=         0 NMat=   1 IRICut=       1 DoRegI=T DoRafI=F ISym2E= 0.
 FoFCou: FMM=F IPFlag=           0 FMFlag=      100000 FMFlg1=           0
         NFxFlg=           0 DoJE=F BraDBF=F KetDBF=F FulRan=T
         wScrn=  0.000000 ICntrl=    3107 IOpCl=  1 I1Cent=           0 NGrid=           0
         NMat0=    1 NMatS0=      1 NMatT0=    0 NMatD0=    4 NMtDS0=    3 NMtDT0=    0
 Symmetry not used in FoFCou.
 End of G2Drv F.D. properties file   721 does not exist.
 End of G2Drv F.D. properties file   722 does not exist.
 End of G2Drv F.D. properties file   788 does not exist.
 Leave Link 1110 at Sat Mar  4 13:43:46 2017, MaxMem=   655360000 cpu:         2.1
 (Enter /mnt/software/gaussian/g09/l1002.exe)
 Minotr:  UHF open shell wavefunction.
          IDoAtm=11111
          Direct CPHF calculation.
          Differentiating once with respect to electric field.
                with respect to dipole field.
          Differentiating once with respect to nuclear coordinates.
          Requested convergence is 1.0D-08 RMS, and 1.0D-07 maximum.
          Secondary convergence is 1.0D-12 RMS, and 1.0D-12 maximum.
          NewPWx=T KeepS1=F KeepF1=F KeepIn=T MapXYZ=F SortEE=F KeepMc=T.
          MDV=     655359796 using IRadAn=       2.
 Keep R1 and R2 ints in memory in canonical form, NReq=8971737.
 FoFCou: FMM=F IPFlag=           0 FMFlag=           0 FMFlg1=           0
         NFxFlg=           0 DoJE=F BraDBF=F KetDBF=F FulRan=T
         wScrn=  0.000000 ICntrl=     600 IOpCl=  0 I1Cent=           0 NGrid=           0
         NMat0=    1 NMatS0=   2850 NMatT0=    0 NMatD0=    1 NMtDS0=    0 NMtDT0=    0
 Symmetry not used in FoFCou.
          Solving linear equations simultaneously, MaxMat=       0.
          There are    18 degrees of freedom in the 1st order CPHF.  IDoFFX=5 NUNeed=    18.
 Will reuse    3 saved solutions.
     12 vectors produced by pass  0 Test12= 1.24D-14 5.56D-09 XBig12= 1.87D-01 9.17D-02.
 AX will form    12 AO Fock derivatives at one time.
     12 vectors produced by pass  1 Test12= 1.24D-14 5.56D-09 XBig12= 1.62D-02 5.44D-02.
     12 vectors produced by pass  2 Test12= 1.24D-14 5.56D-09 XBig12= 2.31D-03 1.16D-02.
     12 vectors produced by pass  3 Test12= 1.24D-14 5.56D-09 XBig12= 5.60D-05 1.92D-03.
     11 vectors produced by pass  4 Test12= 1.24D-14 5.56D-09 XBig12= 6.96D-07 1.88D-04.
      9 vectors produced by pass  5 Test12= 1.24D-14 5.56D-09 XBig12= 8.25D-09 1.61D-05.
      9 vectors produced by pass  6 Test12= 1.24D-14 5.56D-09 XBig12= 1.08D-10 1.92D-06.
      7 vectors produced by pass  7 Test12= 1.24D-14 5.56D-09 XBig12= 9.39D-13 1.81D-07.
      3 vectors produced by pass  8 Test12= 1.24D-14 5.56D-09 XBig12= 4.99D-15 9.85D-09.
 InvSVY:  IOpt=1 It=  1 EMax= 3.72D-14
 Solved reduced A of dimension    87 with    12 vectors.
 FullF1:  Do perturbations    1 to     3.
 Isotropic polarizability for W=    0.000000       11.95 Bohr**3.
 FullF1:  Do perturbations    1 to     6.
 End of Minotr F.D. properties file   721 does not exist.
 End of Minotr F.D. properties file   722 does not exist.
 End of Minotr F.D. properties file   788 does not exist.
 Leave Link 1002 at Sat Mar  4 13:43:47 2017, MaxMem=   655360000 cpu:         4.8
 (Enter /mnt/software/gaussian/g09/l601.exe)
 Copying SCF densities to generalized density rwf, IOpCl= 1 IROHF=0.

 **********************************************************************

            Population analysis using the SCF density.

 **********************************************************************

 Orbital symmetries:
 Alpha Orbitals:
       Occupied  (A) (A) (A) (A) (A) (A) (A) (A) (A) (A) (A) (A)
                 (A) (A) (A) (A) (A) (A) (A) (A) (A)
       Virtual   (A) (A) (A) (A) (A) (A) (A) (A) (A) (A) (A) (A)
                 (A) (A) (A) (A) (A) (A) (A) (A) (A) (A) (A) (A)
                 (A) (A) (A) (A) (A) (A) (A) (A) (A) (A) (A) (A)
                 (A) (A) (A) (A) (A) (A) (A) (A) (A) (A) (A) (A)
                 (A) (A) (A) (A) (A) (A)
 Beta  Orbitals:
       Occupied  (A) (A) (A) (A) (A) (A) (A) (A) (A) (A) (A) (A)
                 (A) (A) (A) (A) (A) (A) (A) (A)
       Virtual   (A) (A) (A) (A) (A) (A) (A) (A) (A) (A) (A) (A)
                 (A) (A) (A) (A) (A) (A) (A) (A) (A) (A) (A) (A)
                 (A) (A) (A) (A) (A) (A) (A) (A) (A) (A) (A) (A)
                 (A) (A) (A) (A) (A) (A) (A) (A) (A) (A) (A) (A)
                 (A) (A) (A) (A) (A) (A) (A)
 The electronic state is 2-A.
 Alpha  occ. eigenvalues --  -26.75269 -26.74745 -26.73650 -26.43741 -11.97186
 Alpha  occ. eigenvalues --   -2.14728  -2.04777  -2.02847  -1.69123  -1.32160
 Alpha  occ. eigenvalues --   -1.22302  -1.21731  -1.16817  -1.06579  -1.05955
 Alpha  occ. eigenvalues --   -1.03648  -1.02631  -1.01462  -0.85946  -0.75158
 Alpha  occ. eigenvalues --   -0.75155
 Alpha virt. eigenvalues --   -0.30783   0.09546   0.10959   0.13096   0.33036
 Alpha virt. eigenvalues --    0.36842   0.38248   0.40011   1.00786   1.01362
 Alpha virt. eigenvalues --    1.03166   1.03266   1.05893   1.06419   1.27780
 Alpha virt. eigenvalues --    1.28282   1.29329   1.29948   1.31482   1.32067
 Alpha virt. eigenvalues --    1.32870   1.39705   1.39713   1.42368   1.62574
 Alpha virt. eigenvalues --    1.62707   1.73192   1.74834   1.77744   1.81341
 Alpha virt. eigenvalues --    1.81988   1.82559   1.95859   1.99873   2.00417
 Alpha virt. eigenvalues --    2.01757   2.02143   2.02147   2.07015   2.07559
 Alpha virt. eigenvalues --    2.07559   2.46154   2.48359   2.50809   2.82365
 Alpha virt. eigenvalues --    2.82791   3.09948   3.11481   3.13136   3.66222
 Alpha virt. eigenvalues --    4.20112   4.38622   4.43277   4.67896
  Beta  occ. eigenvalues --  -26.75269 -26.74745 -26.73650 -26.38966 -11.97186
  Beta  occ. eigenvalues --   -2.14728  -2.04777  -2.02847  -1.49931  -1.32160
  Beta  occ. eigenvalues --   -1.22302  -1.21731  -1.16817  -1.06579  -1.05955
  Beta  occ. eigenvalues --   -1.03648  -1.02631  -1.01462  -0.69993  -0.69990
  Beta virt. eigenvalues --   -0.30783   0.05737   0.09546   0.10959   0.13096
  Beta virt. eigenvalues --    0.33036   0.36842   0.38248   0.40011   1.00786
  Beta virt. eigenvalues --    1.01362   1.03266   1.05893   1.06396   1.06419
  Beta virt. eigenvalues --    1.27780   1.28282   1.29329   1.29948   1.31482
  Beta virt. eigenvalues --    1.32067   1.42230   1.42238   1.42368   1.55220
  Beta virt. eigenvalues --    1.62574   1.62707   1.73192   1.74834   1.77744
  Beta virt. eigenvalues --    1.81341   1.81988   1.82559   1.95859   1.99873
  Beta virt. eigenvalues --    2.01757   2.07015   2.08233   2.08233   2.11024
  Beta virt. eigenvalues --    2.11028   2.12127   2.46154   2.48359   2.50809
  Beta virt. eigenvalues --    2.82365   2.82791   3.09948   3.11481   3.13136
  Beta virt. eigenvalues --    3.70522   4.20112   4.38622   4.43277   4.67896
          Condensed to atoms (all electrons):
               1          2          3          4          5
     1  C    3.522106   0.397345   0.392467   0.000000   0.383365
     2  F    0.397345   8.759995  -0.031864   0.000000  -0.036415
     3  F    0.392467  -0.031864   8.776355   0.000000  -0.038370
     4  F    0.000000   0.000000   0.000000   9.000000   0.000000
     5  F    0.383365  -0.036415  -0.038370   0.000000   8.808489
          Atomic-Atomic Spin Densities.
               1          2          3          4          5
     1  C    0.000000   0.000000   0.000000   0.000000   0.000000
     2  F    0.000000   0.000000   0.000000   0.000000   0.000000
     3  F    0.000000   0.000000   0.000000   0.000000   0.000000
     4  F    0.000000   0.000000   0.000000   1.000000   0.000000
     5  F    0.000000   0.000000   0.000000   0.000000   0.000000
 Mulliken charges and spin densities:
               1          2
     1  C    1.304718   0.000000
     2  F   -0.089061   0.000000
     3  F   -0.098588   0.000000
     4  F    0.000000   1.000000
     5  F   -0.117069   0.000000
 Sum of Mulliken charges =   1.00000   1.00000
 Mulliken charges and spin densities with hydrogens summed into heavy atoms:
               1          2
     1  C    1.304718   0.000000
     2  F   -0.089061   0.000000
     3  F   -0.098588   0.000000
     4  F    0.000000   1.000000
     5  F   -0.117069   0.000000
 APT charges:
               1
     1  C    1.975441
     2  F   -0.326470
     3  F   -0.325040
     4  F    0.000001
     5  F   -0.323932
 Sum of APT charges =   1.00000
 APT charges with hydrogens summed into heavy atoms:
               1
     1  C    1.975441
     2  F   -0.326470
     3  F   -0.325040
     4  F    0.000001
     5  F   -0.323932
 Electronic spatial extent (au):  <R**2>=           5622.2446
 Charge=              1.0000 electrons
 Dipole moment (field-independent basis, Debye):
    X=             14.4752    Y=             -0.2352    Z=             -1.3746  Tot=             14.5422
 Quadrupole moment (field-independent basis, Debye-Ang):
   XX=             22.6731   YY=            -20.5939   ZZ=            -20.2586
   XY=             -0.7959   XZ=             -3.9214   YZ=             -0.2107
 Traceless Quadrupole moment (field-independent basis, Debye-Ang):
   XX=             28.7329   YY=            -14.5341   ZZ=            -14.1988
   XY=             -0.7959   XZ=             -3.9214   YZ=             -0.2107
 Octapole moment (field-independent basis, Debye-Ang**2):
  XXX=            138.0136  YYY=              0.5559  ZZZ=              0.1978  XYY=             -5.8113
  XXY=             -2.4661  XXZ=            -10.9564  XZZ=              3.1113  YZZ=             -0.1497
  YYZ=              0.3717  XYZ=              3.8201
 Hexadecapole moment (field-independent basis, Debye-Ang**3):
 XXXX=          -4373.1522 YYYY=            -66.9247 ZZZZ=            -22.6718 XXXY=            -25.9917
 XXXZ=            -24.2751 YYYX=              1.8988 YYYZ=              0.3510 ZZZX=             -0.0976
 ZZZY=             -0.2981 XXYY=           -711.1660 XXZZ=           -786.4465 YYZZ=            -15.4810
 XXYZ=            -36.4327 YYXZ=              1.4817 ZZXY=             -0.7119
 N-N= 1.395417538934D+02 E-N=-1.306210977879D+03  KE= 4.337926474599D+02
  Exact polarizability:  12.510  -0.035  13.295  -1.518  -0.011  10.059
 Approx polarizability:  11.800  -0.040  12.338  -1.120   0.033  10.008
                          Isotropic Fermi Contact Couplings
        Atom                 a.u.       MegaHertz       Gauss      10(-4) cm-1
     1  C(13)              0.00000       0.00000       0.00000       0.00000
     2  F(19)              0.00000       0.00000       0.00000       0.00000
     3  F(19)              0.00000       0.00000       0.00000       0.00000
     4  F(19)              0.06931     291.61790     104.05651      97.27326
     5  F(19)              0.00000       0.00000       0.00000       0.00000
 --------------------------------------------------------
       Center         ----  Spin Dipole Couplings  ----
                      3XX-RR        3YY-RR        3ZZ-RR
 --------------------------------------------------------
     1   Atom        0.000095     -0.000047     -0.000047
     2   Atom        0.000078     -0.000039     -0.000039
     3   Atom        0.000114     -0.000057     -0.000057
     4   Atom       -2.900706      4.661627     -1.760921
     5   Atom        0.000087     -0.000043     -0.000044
 --------------------------------------------------------
                        XY            XZ            YZ
 --------------------------------------------------------
     1   Atom        0.000000     -0.000002      0.000000
     2   Atom       -0.000006     -0.000002      0.000000
     3   Atom       -0.000005      0.000008      0.000000
     4   Atom       -0.288172      0.112331     -2.952141
     5   Atom        0.000010      0.000000      0.000000
 --------------------------------------------------------


 ---------------------------------------------------------------------------------
              Anisotropic Spin Dipole Couplings in Principal Axis System
 ---------------------------------------------------------------------------------

       Atom             a.u.   MegaHertz   Gauss  10(-4) cm-1        Axes

              Baa     0.0000    -0.006    -0.002    -0.002  0.0103  0.3635  0.9315
     1 C(13)  Bbb     0.0000    -0.006    -0.002    -0.002 -0.0027  0.9316 -0.3635
              Bcc     0.0001     0.013     0.005     0.004  0.9999 -0.0013 -0.0106
 
              Baa     0.0000    -0.020    -0.007    -0.007  0.0346  0.3639  0.9308
     2 F(19)  Bbb     0.0000    -0.020    -0.007    -0.007  0.0417  0.9300 -0.3652
              Bcc     0.0001     0.039     0.014     0.013  0.9985 -0.0515 -0.0170
 
              Baa    -0.0001    -0.029    -0.010    -0.010 -0.0329  0.3619  0.9316
     3 F(19)  Bbb    -0.0001    -0.029    -0.010    -0.010  0.0412  0.9318 -0.3605
              Bcc     0.0001     0.058     0.021     0.019  0.9986 -0.0265  0.0455
 
              Baa    -2.9117 -1462.325  -521.794  -487.779  0.0166  0.3637  0.9314
     4 F(19)  Bbb    -2.9117 -1462.316  -521.791  -487.776  0.9992  0.0270 -0.0283
              Bcc     5.8234  2924.641  1043.585   975.555 -0.0354  0.9311 -0.3630
 
              Baa     0.0000    -0.022    -0.008    -0.007 -0.0297  0.3621  0.9317
     5 F(19)  Bbb     0.0000    -0.022    -0.008    -0.007 -0.0738  0.9288 -0.3633
              Bcc     0.0001     0.044     0.016     0.015  0.9968  0.0795  0.0009
 

 ---------------------------------------------------------------------------------

 No NMR shielding tensors so no spin-rotation constants.
 Leave Link  601 at Sat Mar  4 13:43:47 2017, MaxMem=   655360000 cpu:         1.5
 (Enter /mnt/software/gaussian/g09/l701.exe)
 Compute integral second derivatives.
 ... and contract with generalized density number  0.
 Entering OneElI...
 Calculate overlap and kinetic energy integrals
    NBasis =  75  MinDer = 2  MaxDer = 2
 Requested accuracy = 0.1000D-12
 PrsmSu:  NPrtUS=   6 ThrOK=T IAlg=1 NPAlg=1 LenDen=           0.
 Prism:   IPart=     0 DynPar=F LinDyn=F Incr=           1.
 PRISM was handed   109212905 working-precision words and   146 shell-pairs
 PRISM was handed   109212905 working-precision words and   146 shell-pairs
 PRISM was handed   109212905 working-precision words and   146 shell-pairs
 PRISM was handed   109212905 working-precision words and   146 shell-pairs
 PRISM was handed   109212905 working-precision words and   146 shell-pairs
 PRISM was handed   109212905 working-precision words and   146 shell-pairs
 IPart=  1 NShTot=          29 NBatch=          15 AvBLen=         1.9
 IPart=  3 NShTot=          23 NBatch=          11 AvBLen=         2.1
 IPart=  0 NShTot=          29 NBatch=          15 AvBLen=         1.9
 IPart=  2 NShTot=          27 NBatch=          15 AvBLen=         1.8
 IPart=  5 NShTot=          15 NBatch=          10 AvBLen=         1.5
 IPart=  4 NShTot=          23 NBatch=          11 AvBLen=         2.1
 PrSmSu:  NxtVal=              7.
 Entering OneElI...
 Calculate potential energy integrals
    NBasis =  75  MinDer = 2  MaxDer = 2
 Requested accuracy = 0.1000D-12
 PrsmSu:  NPrtUS=   6 ThrOK=T IAlg=1 NPAlg=1 LenDen=           0.
 Prism:   IPart=     0 DynPar=F LinDyn=F Incr=           1.
 PRISM was handed   109214689 working-precision words and   143 shell-pairs
 PRISM was handed   109214689 working-precision words and   143 shell-pairs
 PRISM was handed   109214689 working-precision words and   143 shell-pairs
 PRISM was handed   109214689 working-precision words and   143 shell-pairs
 PRISM was handed   109214689 working-precision words and   143 shell-pairs
 PRISM was handed   109214689 working-precision words and   143 shell-pairs
 IPart=  3 NShTot=         120 NBatch=          24 AvBLen=         5.0
 IPart=  1 NShTot=         135 NBatch=          27 AvBLen=         5.0
 IPart=  2 NShTot=         125 NBatch=          25 AvBLen=         5.0
 IPart=  5 NShTot=          70 NBatch=          14 AvBLen=         5.0
 IPart=  0 NShTot=         145 NBatch=          29 AvBLen=         5.0
 IPart=  4 NShTot=         120 NBatch=          24 AvBLen=         5.0
 PrSmSu:  NxtVal=              7.
 Polarizability after L701:
                1             2             3 
      1  0.125104D+02
      2 -0.347624D-01  0.132946D+02
      3 -0.151764D+01 -0.105665D-01  0.100587D+02
 Dipole Derivatives after L701:
                 1             2             3             4             5 
      1   0.215426D+01 -0.184749D-01 -0.428052D+00 -0.460018D+00  0.205365D+00
      2  -0.224051D-01  0.232643D+01 -0.163133D-01  0.272163D+00 -0.423180D+00
      3  -0.429035D+00 -0.788370D-02  0.144563D+01  0.184890D+00 -0.982098D-01
                 6             7             8             9            10 
      1   0.429893D-01 -0.468692D+00 -0.113903D+00  0.356892D+00 -0.153995D-03
      2   0.140270D-01 -0.102126D+00 -0.261403D+00  0.116889D+00  0.000000D+00
      3  -0.962120D-01  0.176918D+00  0.529753D-01 -0.245025D+00  0.407823D-05
                11            12            13            14            15 
      1   0.000000D+00  0.352997D-05 -0.225394D+00 -0.729886D-01  0.281668D-01
      2   0.805655D-04 -0.175162D-05 -0.147632D+00 -0.641930D+00 -0.114601D+00
      3  -0.135030D-05  0.762935D-04  0.672227D-01  0.531196D-01 -0.104473D+00
 Hessian after L701:
                1             2             3             4             5 
      1  0.179234D+02
      2  0.533689D+00  0.157703D+02
      3  0.729236D+01 -0.156408D+00  0.299284D+02
      4 -0.292971D+01 -0.731487D+01 -0.451055D+00  0.228551D+01
      5 -0.750929D+01 -0.644894D+01  0.192336D+00  0.868412D+01  0.565116D+01
      6 -0.888596D+00  0.525686D+00 -0.126729D+02  0.184044D+01 -0.986618D+00
      7 -0.464456D+01  0.285019D+01 -0.748205D+01  0.135656D+01 -0.629849D+00
      8  0.282168D+01 -0.109334D+02 -0.276751D+01 -0.354947D+00 -0.787824D+00
      9 -0.693365D+01 -0.258699D+01 -0.583202D+01 -0.120598D+01  0.409988D+00
     10  0.262314D-02 -0.192347D-03 -0.476130D-02  0.100253D-01 -0.321795D-02
     11 -0.156560D-04 -0.238235D-02  0.160588D-04 -0.607481D-03 -0.306624D-02
     12  0.134031D-03  0.106415D-04 -0.200417D-02 -0.260075D-03  0.707036D-04
     13 -0.103517D+02  0.393118D+01  0.645511D+00 -0.722383D+00 -0.541771D+00
     14  0.415394D+01  0.161443D+01  0.273157D+01 -0.101370D+01  0.158867D+01
     15  0.529761D+00  0.221770D+01 -0.114214D+02 -0.183150D+00  0.384223D+00
                6             7             8             9            10 
      6  0.138421D+02
      7 -0.872769D+00  0.314203D+01
      8  0.203075D+00 -0.354680D+01  0.111244D+02
      9 -0.398693D+00  0.866412D+01  0.300994D+01  0.690977D+01
     10 -0.138909D-03  0.583346D-02 -0.162697D-02  0.425909D-02 -0.269410D-01
     11  0.134255D-04 -0.313402D-03 -0.465902D-02 -0.733319D-04  0.248487D-04
     12 -0.320483D-02  0.583774D-03 -0.284325D-04 -0.466958D-02 -0.426958D-03
     13 -0.789413D-01  0.140140D+00  0.108169D+01 -0.528744D+00  0.845909D-02
     14  0.257843D+00  0.132677D+01  0.601533D+00 -0.832859D+00  0.501242D-02
     15 -0.767305D+00 -0.309885D+00 -0.445475D+00 -0.674383D+00  0.106808D-02
               11            12            13            14            15 
     11  0.134359D-01
     12  0.665994D-05  0.135051D-01
     13  0.911690D-03 -0.307719D-04  0.109255D+02
     14 -0.332829D-02 -0.595725D-04 -0.447202D+01 -0.380131D+01
     15  0.371876D-04 -0.362649D-02 -0.377941D-01 -0.215649D+01  0.128667D+02
 Leave Link  701 at Sat Mar  4 13:43:47 2017, MaxMem=   655360000 cpu:         0.9
 (Enter /mnt/software/gaussian/g09/l702.exe)
 L702 exits ... SP integral derivatives will be done elsewhere.
 Leave Link  702 at Sat Mar  4 13:43:47 2017, MaxMem=   655360000 cpu:         0.1
 (Enter /mnt/software/gaussian/g09/l703.exe)
 Compute integral second derivatives, UseDBF=F ICtDFT=           0.
 Integral derivatives from FoFJK, PRISM(SPDF).
 ICntrl=    100127.
 Calling FoFJK, ICntrl=    100127 FMM=F ISym2X=0 I1Cent= 0 IOpClX= 1 NMat=1 NMatS=1 NMatT=0.
 FoFJK:  IHMeth= 1 ICntrl=  100127 DoSepK=F KAlg= 0 I1Cent=   0 FoldK=F
 IRaf=         0 NMat=   1 IRICut=       1 DoRegI=T DoRafI=F ISym2E= 0.
 FoFCou: FMM=F IPFlag=           0 FMFlag=      100000 FMFlg1=         800
         NFxFlg=           0 DoJE=F BraDBF=F KetDBF=F FulRan=T
         wScrn=  0.000000 ICntrl=  100127 IOpCl=  1 I1Cent=           0 NGrid=           0
         NMat0=    1 NMatS0=      1 NMatT0=    0 NMatD0=    1 NMtDS0=    0 NMtDT0=    0
 Symmetry not used in FoFCou.
 FoFCou:  KetSym=F NOpSet=  1 NOpAb=1 NOp=  1.
 FoFCou:  CnvScl= 1.00D+00 Thresh= 1.00D-10 IAcrcy=      10.
 PrismS was handed   655323716 working-precision words and   143 shell-pairs
 FoFCou: LinMIO=F DoNuc=F BraDBF=F KetDBF=F HaveP=T PDBF=F HaveZ=T HaveW=F
         NIJTC =       6 NIJTAt=       0 NIJTCD=       0 NIJTT =       6
         IJTBeg=       1 IJTEnd=       6 KLTBeg=       1 KLTEnd=       6
         IPTBeg=       1 IPTEnd=       6 IPTBCv=       1 IPTECv=       6
         IZTBeg=       1 IZTEnd=       6 IZTBCv=       1 IZTECv=       6
         IWTBeg=       7 IWTEnd=       6 IWTBCv=       7 IWTECv=       6
         INTBeg=       1 INTEnd=       0 IFTBCv=       1 IFTECv=       6
 NCel replicated for PrismC:     1
 CoulSu:  IncDef=  1024 NBBP=          10296 NTPThr=   100 NPartT=    6 Incr=          17 LDynOK=F.
 CoulSu:  NPrtUS=   6 ThrOK=T IAlg=1 NPAlg=1 LenDen=           0 LWGrdD=           0 DoCopy=F.
 Enter PrismC: JobTyp=22 DoJE=F Cont=F.
 PrismC:  IPart=     0 DynPar=F LinDyn=F Incr=          17 UseFst=F UseS4=T IGathr=2.
 PrismC was handed   109213349 working-precision words and   143 shell-pairs
 Enter PrismC: JobTyp=22 DoJE=F Cont=F.
 Enter PrismC: JobTyp=22 DoJE=F Cont=F.
 PrismC was handed   109213349 working-precision words and   143 shell-pairs
 PrismC was handed   109213349 working-precision words and   143 shell-pairs
 Enter PrismC: JobTyp=22 DoJE=F Cont=F.
 PrismC was handed   109213349 working-precision words and   143 shell-pairs
 Enter PrismC: JobTyp=22 DoJE=F Cont=F.
 PrismC was handed   109213349 working-precision words and   143 shell-pairs
 Enter PrismC: JobTyp=22 DoJE=F Cont=F.
 PrismC was handed   109213349 working-precision words and   143 shell-pairs
 IPart=  3 NShTot=        1665 NShNF=        1665 NShFF=           0 NBatch=         163 AvBLen=        10.2
 IPart=  2 NShTot=        1669 NShNF=        1669 NShFF=           0 NBatch=         165 AvBLen=        10.1
 IPart=  4 NShTot=        1660 NShNF=        1660 NShFF=           0 NBatch=         165 AvBLen=        10.1
 IPart=  0 NShTot=        1773 NShNF=        1773 NShFF=           0 NBatch=         171 AvBLen=        10.4
 IPart=  5 NShTot=        1653 NShNF=        1653 NShFF=           0 NBatch=         161 AvBLen=        10.3
 IPart=  1 NShTot=        1654 NShNF=        1654 NShFF=           0 NBatch=         164 AvBLen=        10.1
 CoulSu:  NxtVal=            103.
 Polarizability after L703:
                1             2             3 
      1  0.125104D+02
      2 -0.347624D-01  0.132946D+02
      3 -0.151764D+01 -0.105665D-01  0.100587D+02
 Dipole Derivatives after L703:
                 1             2             3             4             5 
      1   0.215426D+01 -0.184749D-01 -0.428052D+00 -0.460018D+00  0.205365D+00
      2  -0.224051D-01  0.232643D+01 -0.163133D-01  0.272163D+00 -0.423180D+00
      3  -0.429035D+00 -0.788370D-02  0.144563D+01  0.184890D+00 -0.982098D-01
                 6             7             8             9            10 
      1   0.429893D-01 -0.468692D+00 -0.113903D+00  0.356892D+00 -0.153995D-03
      2   0.140270D-01 -0.102126D+00 -0.261403D+00  0.116889D+00  0.000000D+00
      3  -0.962120D-01  0.176918D+00  0.529753D-01 -0.245025D+00  0.407823D-05
                11            12            13            14            15 
      1   0.000000D+00  0.352997D-05 -0.225394D+00 -0.729886D-01  0.281668D-01
      2   0.805655D-04 -0.175162D-05 -0.147632D+00 -0.641930D+00 -0.114601D+00
      3  -0.135030D-05  0.762935D-04  0.672227D-01  0.531196D-01 -0.104473D+00
 Hessian after L703:
                1             2             3             4             5 
      1  0.789778D+00
      2 -0.405235D-01  0.816052D+00
      3 -0.210746D+00 -0.915997D-02  0.432959D+00
      4 -0.340738D+00  0.197242D+00  0.526828D-01  0.395686D+00
      5  0.186780D+00 -0.276331D+00 -0.346258D-01 -0.253931D+00  0.341593D+00
      6  0.304757D-01 -0.165712D-01 -0.100238D+00 -0.880581D-01  0.528204D-01
      7 -0.312957D+00 -0.753036D-01  0.155008D+00 -0.702928D-01  0.191065D-01
      8 -0.776954D-01 -0.147121D+00  0.577291D-01  0.296455D-01  0.251947D-01
      9  0.184094D+00  0.684221D-01 -0.227273D+00  0.362758D-01 -0.487970D-02
     10  0.000000D+00  0.000000D+00  0.000000D+00  0.000000D+00  0.000000D+00
     11  0.000000D+00  0.000000D+00  0.000000D+00  0.000000D+00  0.000000D+00
     12  0.000000D+00  0.000000D+00  0.000000D+00  0.000000D+00  0.000000D+00
     13 -0.136083D+00 -0.814153D-01  0.305581D-02  0.153452D-01  0.480451D-01
     14 -0.685610D-01 -0.392600D+00 -0.139435D-01  0.270436D-01 -0.904568D-01
     15 -0.382408D-02 -0.426910D-01 -0.105447D+00 -0.900491D-03 -0.133149D-01
                6             7             8             9            10 
      6  0.714236D-01
      7  0.535041D-01  0.402591D+00
      8 -0.135648D-01  0.115041D+00  0.167294D+00
      9  0.267162D-02 -0.238857D+00 -0.815816D-01  0.211655D+00
     10  0.000000D+00  0.000000D+00  0.000000D+00  0.000000D+00  0.000000D+00
     11  0.000000D+00  0.000000D+00  0.000000D+00  0.000000D+00  0.000000D+00
     12  0.000000D+00  0.000000D+00  0.000000D+00  0.000000D+00  0.000000D+00
     13  0.407826D-02 -0.193410D-01 -0.669907D-01  0.184870D-01  0.000000D+00
     14 -0.226844D-01 -0.588435D-01 -0.453680D-01  0.180392D-01  0.000000D+00
     15  0.261426D-01  0.303456D-01  0.374174D-01  0.129469D-01  0.000000D+00
               11            12            13            14            15 
     11  0.000000D+00
     12  0.000000D+00  0.000000D+00
     13  0.000000D+00  0.000000D+00  0.140079D+00
     14  0.000000D+00  0.000000D+00  0.100361D+00  0.528424D+00
     15  0.000000D+00  0.000000D+00 -0.256210D-01  0.185886D-01  0.663579D-01
 Leave Link  703 at Sat Mar  4 13:43:48 2017, MaxMem=   655360000 cpu:         3.3
 (Enter /mnt/software/gaussian/g09/l716.exe)
 FrcOut:
 IF    =    42 IFX   =    57 IFXYZ =    72
 IFFX  =    87 IFFFX =   207 IFLen =    15
 IFFLen=   120 IFFFLn=     0 IEDerv=   207
 LEDerv=   773 IFroze=  1169 ICStrt= 12633
 Dipole        = 5.69497926D+00-9.25472302D-02-5.40827635D-01
 DipoleDeriv   = 2.15425849D+00-2.24051090D-02-4.29035499D-01
                -1.84748682D-02 2.32643268D+00-7.88370332D-03
                -4.28051681D-01-1.63132528D-02 1.44563282D+00
                -4.60018272D-01 2.72162820D-01 1.84890249D-01
                 2.05365477D-01-4.23180086D-01-9.82098180D-02
                 4.29892648D-02 1.40269817D-02-9.62119793D-02
                -4.68691878D-01-1.02126228D-01 1.76918497D-01
                -1.13902732D-01-2.61402967D-01 5.29753157D-02
                 3.56892041D-01 1.16889173D-01-2.45024633D-01
                -1.53994857D-04 7.79995418D-07 4.07822788D-06
                 7.64493840D-07 8.05655111D-05-1.35030432D-06
                 3.52997131D-06-1.75162485D-06 7.62935146D-05
                -2.25394347D-01-1.47632263D-01 6.72226743D-02
                -7.29886412D-02-6.41930191D-01 5.31195559D-02
                 2.81668449D-02-1.14601150D-01-1.04472502D-01
 Polarizability= 1.25103597D+01-3.47623863D-02 1.32946435D+01
                -1.51764049D+00-1.05665496D-02 1.00586517D+01
 PolarDeriv    =-1.98799503D+00 2.09490904D-01-1.09297100D+00
                -1.48899991D+00-1.70900840D-01-6.91288610D-02
                 2.72898760D-01-1.07826268D+00-8.51846734D-01
                -1.45968141D-01-1.56470464D+00 3.37982559D-02
                -1.49089005D+00-1.79669052D-01-1.58401264D+00
                -5.11649255D-02-6.39815711D-02-3.68449529D+00
                 4.13395666D+00-1.46943971D+00 1.28817607D+00
                -4.10780790D-01-1.87992263D-02 7.30911262D-01
                -1.14287349D+00 1.66367187D+00-3.29334241D+00
                 4.02719019D-02-1.44290161D-01-3.43801334D-01
                -1.95360453D-01 1.82307159D-01 9.79921183D-02
                 1.20055790D+00-8.49561593D-01-7.55606877D-03
                -3.48726617D+00-5.54182569D-01-8.40983686D-01
                 1.80296780D+00 2.50752357D-01-1.04179922D+00
                -3.30340866D-01-1.44257632D+00-1.39722392D+00
                 2.31837351D-01 1.10573147D+00-3.72276144D-01
                 1.36565875D+00 1.37825524D-01 1.02473361D+00
                -1.58857699D+00-5.31456377D-01 2.92112144D+00
                 3.47206161D-04 1.47856458D-04-1.37929651D-04
                -6.50116359D-05-1.68951798D-05-1.35565725D-04
                -1.16676924D-04 1.21683264D-03 4.71384678D-05
                -5.41078117D-04-6.40273312D-05 4.92602802D-05
                 7.71905418D-05-5.42056753D-04-2.39015681D-05
                 4.86320246D-05 2.60248314D-05 6.51016502D-06
                 1.34095734D+00 1.81398352D+00 6.45916539D-01
                 9.68779177D-02-6.10353954D-02 3.80152387D-01
                 1.20043228D+00 8.55950304D-01 5.54236592D+00
                -1.25600034D-01 6.03327352D-01 6.82229962D-01
                 3.20514560D-01-1.39921575D-01 4.61310820D-01
                 4.39135380D-01 1.44497352D+00 7.70923409D-01
 HyperPolar    =-6.36392653D+00 4.37026043D+00-6.02377048D+00
                -6.64417486D+00-6.08045404D+00-2.72408490D+00
                -5.94870279D+00 3.66291772D+00 7.96229472D-01
                -9.94908517D+00
 VibFq2-Diag1:  N=     15 IV=           6 MDV=   655346161 NE2=    43689743
 Full mass-weighted force constant matrix:
 Low frequencies ---   -0.7004    0.0001    0.0005    0.0009    0.3445    0.5383
 Low frequencies ---  136.3258  165.5376  168.1885
 OrtVCM:  Ph=1 IPass= 1 DotMx1= 0.00D+00
 OrtVCM:  IS=    1 I=    1 IndO=    1 Dot= 1.00D+00 DotN= 1.00D+00 ElMax1= 4.65D-01 ElMax1N= 4.65D-01
 OrtVCM:  Ph=2 NNew=    0 IAdd=    2 IPass= 1 DotMx2= 0.00D+00
 OrtVCM:  IS=    1 I=    2 IndO=    2 Dot= 1.00D+00 DotN= 1.00D+00 ElMax1= 4.65D-01 ElMax1N= 4.65D-01
 OrtVCM:  Ph=2 NNew=    0 IAdd=    3 IPass= 1 DotMx2= 0.00D+00
 OrtVCM:  IS=    1 I=    3 IndO=    3 Dot= 1.00D+00 DotN= 1.00D+00 ElMax1= 4.65D-01 ElMax1N= 4.65D-01
 OrtVCM:  Ph=2 NNew=    0 IAdd=    4 IPass= 1 DotMx2= 5.55D-17
 OrtVCM:  IS=    1 I=    4 IndO=    4 Dot= 1.00D+00 DotN= 1.00D+00 ElMax1= 7.30D-01 ElMax1N= 7.30D-01
 OrtVCM:  Ph=2 NNew=    0 IAdd=    5 IPass= 1 DotMx2= 1.11D-16
 OrtVCM:  IS=    1 I=    5 IndO=    5 Dot= 1.00D+00 DotN= 1.00D+00 ElMax1= 8.79D-01 ElMax1N= 8.79D-01
 OrtVCM:  Ph=2 NNew=    0 IAdd=    6 IPass= 1 DotMx2= 5.31D-16
 OrtVCM:  IS=    1 I=    6 IndO=    6 Dot= 1.00D+00 DotN= 1.00D+00 ElMax1= 8.75D-01 ElMax1N= 8.75D-01
 OrtVCM:  Ph=1 IPass= 1 DotMx1= 4.94D-01
 OrtVCM:  Ph=1 IPass= 2 DotMx1= 6.94D-17
 OrtVCM:  IS=    1 I=    1 IndO=    7 Dot= 8.63D-01 DotN= 8.63D-01 ElMax1= 8.63D-01 ElMax1N= 8.63D-01
 OrtVCM:  Ph=2 NNew=    0 IAdd=    2 IPass= 1 DotMx2= 2.63D-04
 OrtVCM:  Ph=2 NNew=    0 IAdd=    2 IPass= 2 DotMx2= 1.08D-19
 OrtVCM:  IS=    1 I=    2 IndO=    8 Dot= 8.19D-01 DotN= 8.19D-01 ElMax1= 8.19D-01 ElMax1N= 8.19D-01
 OrtVCM:  Ph=2 NNew=    0 IAdd=    3 IPass= 1 DotMx2= 2.59D-03
 OrtVCM:  Ph=2 NNew=    0 IAdd=    3 IPass= 2 DotMx2= 3.47D-18
 OrtVCM:  IS=    1 I=    3 IndO=    9 Dot= 8.29D-01 DotN= 8.29D-01 ElMax1= 8.29D-01 ElMax1N= 8.29D-01
 OrtVCM:  Ph=2 NNew=    0 IAdd=    4 IPass= 1 DotMx2= 1.85D-01
 OrtVCM:  Ph=2 NNew=    0 IAdd=    4 IPass= 2 DotMx2= 1.16D-16
 OrtVCM:  IS=    1 I=    4 IndO=   10 Dot= 7.45D-01 DotN= 7.45D-01 ElMax1= 7.45D-01 ElMax1N= 7.45D-01
 OrtVCM:  Ph=2 NNew=    0 IAdd=    5 IPass= 1 DotMx2= 2.75D-01
 OrtVCM:  Ph=2 NNew=    0 IAdd=    5 IPass= 2 DotMx2= 5.55D-17
 OrtVCM:  IS=    1 I=    5 IndO=   11 Dot= 5.75D-01 DotN= 5.75D-01 ElMax1= 5.75D-01 ElMax1N= 5.75D-01
 OrtVCM:  Ph=2 NNew=    0 IAdd=    6 IPass= 1 DotMx2= 2.57D-01
 OrtVCM:  Ph=2 NNew=    0 IAdd=    6 IPass= 2 DotMx2= 5.55D-17
 OrtVCM:  IS=    1 I=    6 IndO=   12 Dot= 3.53D-01 DotN= 3.53D-01 ElMax1= 4.48D-01 ElMax1N= 4.48D-01
 OrtVCM:  Ph=2 NNew=    0 IAdd=    7 IPass= 1 DotMx2= 2.90D-01
 OrtVCM:  Ph=2 NNew=    0 IAdd=    7 IPass= 2 DotMx2= 3.47D-17
 OrtVCM:  IS=    1 I=    7 IndO=   13 Dot= 6.62D-01 DotN= 6.62D-01 ElMax1= 6.62D-01 ElMax1N= 6.62D-01
 OrtVCM:  Ph=2 NNew=    0 IAdd=    8 IPass= 1 DotMx2= 3.27D-01
 OrtVCM:  Ph=2 NNew=    0 IAdd=    8 IPass= 2 DotMx2= 1.09D-16
 OrtVCM:  IS=    1 I=    8 IndO=   14 Dot= 4.61D-01 DotN= 4.61D-01 ElMax1= 4.61D-01 ElMax1N= 4.61D-01
 OrtVCM:  Ph=2 NNew=    0 IAdd=    9 IPass= 1 DotMx2= 7.53D-01
 OrtVCM:  Ph=2 NNew=    0 IAdd=    9 IPass= 2 DotMx2= 1.58D-16
 OrtVCM:  IS=    1 I=    9 IndO=    0 Dot= 2.42D-33 DotN= 2.42D-33 ElMax1= 3.29D-17 ElMax1N= 3.29D-17
 SchOr2:  IPass= 1 Test2A= 1.00D-01 IOff=     0 NDo=     9 NNew=     8
 OrtVCM:  Ph=1 IPass= 1 DotMx1= 4.65D-01
 OrtVCM:  Ph=1 IPass= 2 DotMx1= 1.39D-16
 OrtVCM:  IS=    1 I=    1 IndO=   15 Dot= 4.97D-01 DotN= 4.97D-01 ElMax1= 4.97D-01 ElMax1N= 4.97D-01
 SchOr2:  IPass= 1 Test2A= 1.00D-01 IOff=     9 NDo=     1 NNew=     1
 VibFq2-Diag2:  N=      9 IV=           6 MDV=   655346161 NE2=    72816239
 ******    1 imaginary frequencies (negative Signs) ****** 
 Dipole derivatives wrt mode   1: -1.74786D+00 -2.72852D-04 -9.01507D-03
 Polarizability derivatives wrt mode          1
                 1             2             3 
      1   0.252954D-04  0.105848D-04 -0.467324D-05
      2   0.105848D-04 -0.100044D-04 -0.119645D-05
      3  -0.467324D-05 -0.119645D-05 -0.975637D-05
 Vibrational polarizability contributions from mode   1  167871.8554381       0.0040909       4.4658527
 IFr=  0 A012= 0.46D-10 0.10D-07 0.17D-08 Act= 0.12D-07 DepolP= 0.73D+00 DepolU= 0.85D+00
 Dipole derivatives wrt mode   2:  1.74976D-02  4.01710D-01 -1.88591D-02
 Polarizability derivatives wrt mode          2
                 1             2             3 
      1   0.102505D-01  0.174743D-01  0.359149D-02
      2   0.174743D-01 -0.400390D-02  0.501436D-01
      3   0.359149D-02  0.501436D-01 -0.860545D-02
 Vibrational polarizability contributions from mode   2       0.0003936       0.2074328       0.0004572
 IFr=  0 A012= 0.83D-05 0.53D-01 0.88D-02 Act= 0.62D-01 DepolP= 0.75D+00 DepolU= 0.86D+00
 Dipole derivatives wrt mode   3:  2.70446D-01 -6.77941D-02 -3.38353D-01
 Polarizability derivatives wrt mode          3
                 1             2             3 
      1   0.800571D-01  0.764373D-02  0.584156D-01
      2   0.764373D-02 -0.689265D-02 -0.975164D-02
      3   0.584156D-01 -0.975164D-02 -0.721998D-01
 Vibrational polarizability contributions from mode   3       0.0716421       0.0045018       0.1121360
 IFr=  0 A012= 0.14D-05 0.17D+00 0.28D-01 Act= 0.20D+00 DepolP= 0.75D+00 DepolU= 0.86D+00
 Dipole derivatives wrt mode   4: -9.20432D-01 -3.12303D+00  6.49676D-01
 Polarizability derivatives wrt mode          4
                 1             2             3 
      1   0.159605D+00 -0.413222D-01 -0.732251D-01
      2  -0.413222D-01 -0.187695D+00  0.373835D-01
      3  -0.732251D-01  0.373835D-01  0.302928D-01
 Vibrational polarizability contributions from mode   4       0.0588523       0.6775352       0.0293206
 IFr=  0 A012= 0.73D-05 0.71D+00 0.12D+00 Act= 0.82D+00 DepolP= 0.75D+00 DepolU= 0.86D+00
 Dipole derivatives wrt mode   5: -3.04681D+00  1.19582D+00  1.36327D+00
 Polarizability derivatives wrt mode          5
                 1             2             3 
      1   0.515432D-01  0.170977D+00 -0.129783D-01
      2   0.170977D+00 -0.549283D-01 -0.869585D-01
      3  -0.129783D-01 -0.869585D-01  0.223838D-02
 Vibrational polarizability contributions from mode   5       0.6065576       0.0934351       0.1214347
 IFr=  0 A012= 0.20D-05 0.72D+00 0.12D+00 Act= 0.84D+00 DepolP= 0.75D+00 DepolU= 0.86D+00
 Dipole derivatives wrt mode   6:  3.74832D+00  1.19111D-01  7.92866D+00
 Polarizability derivatives wrt mode          6
                 1             2             3 
      1   0.219998D-01 -0.488278D-02 -0.114738D+00
      2  -0.488278D-02  0.762455D-01 -0.110953D-01
      3  -0.114738D+00 -0.110953D-01 -0.169738D+00
 Vibrational polarizability contributions from mode   6       0.5013356       0.0005062       2.2431277
 IFr=  0 A012= 0.77D-02 0.56D+00 0.93D-01 Act= 0.66D+00 DepolP= 0.70D+00 DepolU= 0.82D+00
 Dipole derivatives wrt mode   7:  2.40224D+00  1.72730D+00  5.41301D+00
 Polarizability derivatives wrt mode          7
                 1             2             3 
      1  -0.369131D+00 -0.145248D-01  0.585203D-01
      2  -0.145248D-01 -0.411166D+00 -0.199803D-01
      3   0.585203D-01 -0.199803D-01 -0.279134D+00
 Vibrational polarizability contributions from mode   7       0.1328069       0.0686630       0.6743205
 IFr=  0 A012= 0.17D+01 0.35D+01 0.59D+00 Act= 0.58D+01 DepolP= 0.14D-01 DepolU= 0.27D-01
 Dipole derivatives wrt mode   8:  6.94436D+00  1.96291D+01 -4.03941D+00
 Polarizability derivatives wrt mode          8
                 1             2             3 
      1   0.602698D-01 -0.981340D-01 -0.862096D-01
      2  -0.981340D-01 -0.106400D+00 -0.138782D+00
      3  -0.862096D-01 -0.138782D+00  0.929626D-01
 Vibrational polarizability contributions from mode   8       0.5601751       4.4756691       0.1895375
 IFr=  0 A012= 0.33D-02 0.87D+00 0.14D+00 Act= 0.10D+01 DepolP= 0.74D+00 DepolU= 0.85D+00
 Dipole derivatives wrt mode   9:  1.82767D+01 -8.08675D+00 -8.27509D+00
 Polarizability derivatives wrt mode          9
                 1             2             3 
      1  -0.118234D+00  0.114115D+00 -0.115036D+00
      2   0.114115D+00 -0.281080D-01  0.205962D-01
      3  -0.115036D+00  0.205962D-01  0.122629D+00
 Vibrational polarizability contributions from mode   9       3.4533790       0.6760756       0.7079335
[...]
                                                             IR Spectrum
 
     1       1                                 1                                                                                     
     6       5                                 0                8                 6 6                                  1 1           
     1       2                                 8                6                 4 2                                  6 4           
     3       2                                 1                8                 2 2                                  6 5           
 
     X       X                                 X                X                 X X                                  X X           
     X       X                                 X                X                                                                    
     X       X                                                  X                                                                    
     X       X                                                                                                                       
     X       X                                                                                                                       
     X       X                                                                                                                       
     X       X                                                                                                                       
     X       X                                                                                                                       
     X       X                                                                                                                       
     X       X                                                                                                                       
     X       X                                                                                                                       
     X       X                                                                                                                       
     X       X                                                                                                                       
     X       X                                                                                                                       
     X       X                                                                                                                       
     X       X                                                                                                                       
     X       X                                                                                                                       
     X       X                                                                                                                       
     X       X                                                                                                                       
     X                                                                                                                               
 
 
                                                          Distorted Ethanol
                                                            Raman Spectrum
 
     1       1                                 1                                                                                     
     6       5                                 0                8                 6 6                                  1 1           
     1       2                                 8                6                 4 2                                  6 4           
     3       2                                 1                8                 2 2                                  6 5           
 
     X       X                                 X                X                 X X                                  X X           
     X       X                                 X                X                 X X                                                
     X       X                                 X                                  X X                                                
             X                                 X                                                                                     
                                               X                                                                                     
                                               X                                                                                     
                                               X                                                                                     
                                               X                                                                                     
                                               X                                                                                     
                                               X                                                                                     
                                               X                                                                                     
                                               X                                                                                     
                                               X                                                                                     
                                               X                                                                                     
                                               X                                                                                     
                                               X                                                                                     
                                               X                                                                                     
                                               X                                                                                     
                                               X                                                                                     
                                               X                                                                                     
 
 Forces in standard orientation:
 -------------------------------------------------------------------
 Center     Atomic                   Forces (Hartrees/Bohr)
 Number     Number              X              Y              Z
 -------------------------------------------------------------------
      1        6          -0.073383100   -0.031801494   -0.164856489
      2        9           0.044186716   -0.009732737    0.043451145
      3        9          -0.002484577    0.000315427    0.067295921
      4        9          -0.000001849    0.000000107   -0.000000009
      5        9           0.031682809    0.041218696    0.054109432
 -------------------------------------------------------------------
 ***** Axes restored to original set *****
 Rotating derivatives, DoTrsp=F IDiff=-2 LEDeriv=    772 LFDPrp=       0 LDFDPr=       0.
 -------------------------------------------------------------------
 Center     Atomic                   Forces (Hartrees/Bohr)
 Number     Number              X              Y              Z
 -------------------------------------------------------------------
      1        6          -0.087512920    0.159192884    0.023941401
      2        9          -0.000016123   -0.061896435   -0.010199270
      3        9           0.043024635   -0.040005654   -0.032915681
      4        9           0.000000932    0.000001453   -0.000000671
      5        9           0.044503476   -0.057292249    0.019174220
 -------------------------------------------------------------------
 Cartesian Forces:  Max     0.159192884 RMS     0.056376648
 Z-matrix is all fixed cartesians, so copy forces.
 Force constants in Cartesian coordinates: 
                1             2             3             4             5 
      1  0.803068D+00
      2  0.202173D+00  0.447959D+00
      3  0.201949D-01 -0.101750D+00  0.787760D+00
      4 -0.380899D+00 -0.172105D+00 -0.416010D-01  0.492742D+00
      5 -0.201760D+00 -0.214480D+00 -0.240768D-01  0.249375D+00  0.193421D+00
      6 -0.485396D-01 -0.230681D-01 -0.121928D+00  0.642276D-01  0.166888D-01
      7 -0.218960D+00 -0.558014D-01  0.160332D+00 -0.523372D-01 -0.378585D-01
      8 -0.387266D-01 -0.113142D+00  0.508890D-01 -0.497727D-01  0.111005D-02
      9  0.152624D+00  0.756910D-01 -0.355249D+00  0.358413D-01  0.126110D-01
     10  0.000000D+00  0.000000D+00  0.000000D+00  0.000000D+00  0.000000D+00
     11  0.000000D+00  0.000000D+00  0.000000D+00  0.000000D+00  0.000000D+00
     12  0.000000D+00  0.000000D+00  0.000000D+00  0.000000D+00  0.000000D+00
     13 -0.203209D+00  0.257334D-01 -0.138926D+00 -0.595057D-01 -0.975626D-02
     14  0.383136D-01 -0.120337D+00  0.749386D-01 -0.274972D-01  0.199489D-01
     15 -0.124279D+00  0.491277D-01 -0.310583D+00 -0.584680D-01 -0.522304D-02
                6             7             8             9            10 
      6  0.122539D+00
      7  0.486975D-01  0.243963D+00
      8  0.258809D-01  0.872628D-01  0.932064D-01
      9  0.880063D-02 -0.199964D+00 -0.118065D+00  0.444371D+00
     10  0.000000D+00  0.000000D+00  0.000000D+00  0.000000D+00  0.000000D+00
     11  0.000000D+00  0.000000D+00  0.000000D+00  0.000000D+00  0.000000D+00
     12  0.000000D+00  0.000000D+00  0.000000D+00  0.000000D+00  0.000000D+00
     13 -0.643855D-01  0.273350D-01  0.123653D-02  0.114987D-01  0.000000D+00
     14 -0.195017D-01  0.639726D-02  0.188256D-01  0.297624D-01  0.000000D+00
     15 -0.941221D-02 -0.906561D-02  0.412947D-01 -0.979227D-01  0.000000D+00
               11            12            13            14            15 
     11  0.000000D+00
     12  0.000000D+00  0.000000D+00
     13  0.000000D+00  0.000000D+00  0.235380D+00
     14  0.000000D+00  0.000000D+00 -0.172136D-01  0.815630D-01
     15  0.000000D+00  0.000000D+00  0.191812D+00 -0.851994D-01  0.417918D+00
 Final forces over variables, Energy=-4.35122288D+02:
 -8.75129203D-02-1.61234036D-05 4.30246351D-02 9.32252600D-07
  4.45034764D-02 1.59192884D-01-6.18964354D-02-4.00056536D-02
  1.45335749D-06-5.72922486D-02 2.39414013D-02-1.01992701D-02
 -3.29156807D-02-6.70706703D-07 1.91742203D-02
 Leave Link  716 at Sat Mar  4 13:43:48 2017, MaxMem=   655360000 cpu:         0.1
 (Enter /mnt/software/gaussian/g09/l103.exe)

 GradGradGradGradGradGradGradGradGradGradGradGradGradGradGradGradGradGrad
 Berny optimization.
 Search for a local minimum.
 Step number   1 out of a maximum of    2
 All quantities printed in internal units (Hartrees-Bohrs-Radians)
 Second derivative matrix not updated -- analytic derivatives used.
 The second derivative matrix:
                          X1        Y1        Z1        X2        Y2
           X1           0.80307
           Y1           0.20217   0.44796
           Z1           0.02019  -0.10175   0.78776
           X2          -0.38090  -0.17210  -0.04160   0.49274
           Y2          -0.20176  -0.21448  -0.02408   0.24937   0.19342
           Z2          -0.04854  -0.02307  -0.12193   0.06423   0.01669
           X3          -0.21896  -0.05580   0.16033  -0.05234  -0.03786
           Y3          -0.03873  -0.11314   0.05089  -0.04977   0.00111
           Z3           0.15262   0.07569  -0.35525   0.03584   0.01261
           X4           0.00000   0.00000   0.00000   0.00000   0.00000
           Y4           0.00000   0.00000   0.00000   0.00000   0.00000
           Z4           0.00000   0.00000   0.00000   0.00000   0.00000
           X5          -0.20321   0.02573  -0.13893  -0.05951  -0.00976
           Y5           0.03831  -0.12034   0.07494  -0.02750   0.01995
           Z5          -0.12428   0.04913  -0.31058  -0.05847  -0.00522
                          Z2        X3        Y3        Z3        X4
           Z2           0.12254
           X3           0.04870   0.24396
           Y3           0.02588   0.08726   0.09321
           Z3           0.00880  -0.19996  -0.11806   0.44437
           X4           0.00000   0.00000   0.00000   0.00000   0.00000
           Y4           0.00000   0.00000   0.00000   0.00000   0.00000
           Z4           0.00000   0.00000   0.00000   0.00000   0.00000
           X5          -0.06439   0.02733   0.00124   0.01150   0.00000
           Y5          -0.01950   0.00640   0.01883   0.02976   0.00000
           Z5          -0.00941  -0.00907   0.04129  -0.09792   0.00000
                          Y4        Z4        X5        Y5        Z5
           Y4           0.00000
           Z4           0.00000   0.00000
           X5           0.00000   0.00000   0.23538
           Y5           0.00000   0.00000  -0.01721   0.08156
           Z5           0.00000   0.00000   0.19181  -0.08520   0.41792
 ITU=  0
     Eigenvalues ---    0.00000   0.01502   0.01969   0.26783   0.28453
     Eigenvalues ---    0.40242   0.78075   1.20356   1.35151
 Eigenvalue     1 is  -3.45D-07 should be greater than     0.000000 Eigenvector:
                          Y4        X4        Z4        Y1        Y2
   1                    0.69449   0.41433  -0.36134  -0.18197  -0.18197
                          Y3        Y5        X1        X3        X2
   1                   -0.18197  -0.18197  -0.10856  -0.10856  -0.10856
 Quadratic step=5.809D+00 exceeds max=3.000D-01 adjusted using Lamda=-2.507D-01.
 Angle between NR and scaled steps=  85.31 degrees.
 Angle between quadratic step and forces=  11.93 degrees.
 Linear search not attempted -- first point.
 TrRot=  0.002829 -0.009135 -0.000580 -1.379942 -0.000219  1.379607
 MatCor failed.
 Variable       Old X    -DE/DX   Delta X   Delta X   Delta X     New X
                                 (Linear)    (Quad)   (Total)
    X1        1.58191  -0.08751   0.00000  -0.12034  -0.11442   1.46749
    Y1        8.68513   0.15919   0.00000   0.23794   0.22782   8.91295
    Z1       -2.36472   0.02394   0.00000   0.04489   0.04246  -2.32227
    X2        3.50112  -0.00002   0.00000   0.01808   0.02434   3.52546
    Y2       10.02183  -0.06190   0.00000  -0.07166  -0.08242   9.93941
    Z2       -2.05679  -0.01020   0.00000  -0.00871  -0.01128  -2.06807
    X3        0.26193   0.04302   0.00000   0.04091   0.04651   0.30844
    Y3        8.25915  -0.04001   0.00000  -0.06028  -0.06962   8.18953
    Z3       -0.43635  -0.03292   0.00000  -0.01992  -0.02226  -0.45860
    X4      -11.60775   0.00000   0.00000   0.00214   0.00033 -11.60742
    Y4      -12.69534   0.00000   0.00000   0.00338   0.00009 -12.69525
    Z4        9.05908   0.00000   0.00000  -0.00152   0.00015   9.05922
    X5        0.25208   0.04450   0.00000   0.03713   0.04324   0.29532
    Y5        9.32670  -0.05729   0.00000  -0.06572  -0.07587   9.25082
    Z5       -4.26543   0.01917   0.00000  -0.00650  -0.00906  -4.27449
         Item               Value     Threshold  Converged?
 Maximum Force            0.159193     0.000450     NO 
 RMS     Force            0.056377     0.000300     NO 
 Maximum Displacement     0.227817     0.001800     NO 
 RMS     Displacement     0.077254     0.001200     NO 
 Predicted change in Energy=-4.336199D-02
 GradGradGradGradGradGradGradGradGradGradGradGradGradGradGradGradGradGrad

 Leave Link  103 at Sat Mar  4 13:43:48 2017, MaxMem=   655360000 cpu:         0.1
 (Enter /mnt/software/gaussian/g09/l9999.exe)

 Test job not archived.
 1\1\GINC-TP-LINUX1\Freq\UHF\6-31G(d)\C1F4(1+,2)\THOMAS\04-Mar-2017\0\\
 #P UHF/6-31g* IOP(7/33=1) IOP(7/8=11) Freq\\Distorted Ethanol\\1,2\C,0
 .837109,4.595972,-1.251357\F,1.852714,5.303324,-1.088406\F,0.138608,4.
 370554,-0.230904\F,-6.142559,-6.718085,4.793858\F,0.133395,4.935476,-2
 .257166\\Version=ES64L-G09RevD.01\State=2-A\HF=-435.1222881\S2=0.75267
 3\S2-1=0.\S2A=0.750003\RMSD=6.450e-09\RMSF=5.638e-02\ZeroPoint=0.01517
 24\Thermal=0.0196555\Dipole=3.0728803,4.1150995,-2.5213512\DipoleDeriv
 =2.2031433,0.3699573,0.0865157,0.376055,1.4628256,-0.2364209,0.0906229
 ,-0.2422019,2.2603551,-0.5464942,-0.1721386,-0.0474263,-0.3603211,-0.2
 16883,-0.0010478,-0.089353,0.0038898,-0.2160331,-0.3264853,-0.1645513,
 0.2137833,-0.0565361,-0.1197232,0.0493585,0.1659619,0.1998909,-0.52891
 1,0.0000231,-0.000085,0.0000478,-0.0000853,-0.0000606,0.0000749,0.0000
 481,0.0000744,0.0000403,-0.3301869,-0.0331824,-0.2529204,0.0408874,-0.
 1261587,0.1880353,-0.1672799,0.0383468,-0.5154514\Polar=12.7775083,1.2
 707643,10.0814679,0.3836227,-0.86482,13.0046786\PolarDeriv=1.7536765,-
 1.600112,0.1172162,-0.3349847,-0.3214611,1.1737047,-1.6259889,0.191412
 ,-3.5957453,-0.3137544,-0.06916,-1.4378517,-0.3823966,-0.2942977,-0.14
 37248,1.2031156,-1.4203041,-0.9871826,3.9960855,1.7437608,1.0467636,0.
 423129,0.0205603,0.9232078,1.3482338,1.6214412,2.6267416,0.0150799,0.1
 553216,0.9059089,0.3286915,-0.0027441,0.1681363,1.5529183,0.9095207,0.
 6445131,-2.8630248,-0.5550394,-0.5674753,1.6774413,0.0998455,-1.064037
 5,-0.2033367,-0.9392189,-0.3210928,0.2691051,1.2141575,-0.2988153,1.28
 05004,0.1400872,0.5950899,-1.3126841,-0.5100914,4.4946795,0.0000353,0.
 0002287,0.000365,0.0001293,0.0001473,-0.0003898,0.000142,0.0002855,0.0
 001637,-0.0000659,0.0000135,-0.0002102,0.0005363,0.0005103,0.000512,0.
 000375,0.0007848,-0.0010342,-2.8867725,0.4111619,-0.5968695,-1.7657149
 ,0.2009079,-1.0324852,0.4809498,-0.8739199,1.2899328,0.0296353,-1.3003
 326,0.8309683,-1.2273316,0.1564443,-0.6200134,-1.4437248,1.02009,-4.15
 09757\HyperPolar=3.4411067,-7.3724839,-2.0752284,-9.1009989,-1.436826,
 -2.9178958,0.9813987,9.0624705,-4.0029109,-5.316513\PG=C01 [X(C1F4)]\N
 Imag=1\\0.80306839,0.20217265,0.44795921,0.02019490,-0.10175038,0.7877
 6049,-0.38089884,-0.17210480,-0.04160096,0.49274172,-0.20175995,-0.214
 48004,-0.02407682,0.24937474,0.19342116,-0.04853958,-0.02306808,-0.121
 92761,0.06422758,0.01668884,0.12253914,-0.21896028,-0.05580141,0.16033
 190,-0.05233716,-0.03785850,0.04869747,0.24396254,-0.03872661,-0.11314
 196,0.05088897,-0.04977266,0.00111005,0.02588088,0.08726275,0.09320637
 ,0.15262372,0.07569103,-0.35524918,0.03584126,0.01261095,0.00880063,-0
 .19996375,-0.11806457,0.44437115,0.00000005,0.00000019,-0.00000030,-0.
 00000001,-0.00000002,0.00000003,-0.00000005,-0.00000002,0.00000010,0.,
 0.00000031,0.00000026,-0.00000036,-0.00000008,-0.00000007,0.00000003,-
 0.00000009,-0.00000002,0.00000014,-0.00000012,-0.00000014,-0.00000020,
 -0.00000026,-0.00000028,0.00000008,0.00000007,0.00000005,0.,0.00000003
 ,0.00000006,0.00000010,0.00000012,0.00000009,-0.20320932,0.02573338,-0
 .13892553,-0.05950570,-0.00975626,-0.06438551,0.02733496,0.00123653,0.
 01149868,0.00000002,-0.00000001,0.00000004,0.23538005,0.03831359,-0.12
 033747,0.07493858,-0.02749720,0.01994891,-0.01950167,0.00639726,0.0188
 2556,0.02976245,-0.00000002,-0.00000003,0.00000003,-0.01721363,0.08156
 304,-0.12427883,0.04912768,-0.31058343,-0.05846796,-0.00522304,-0.0094
 1221,-0.00906561,0.04129469,-0.09792267,0.00000007,0.00000007,0.000000
 08,0.19181233,-0.08519939,0.41791823\\0.08751292,-0.15919288,-0.023941
 40,0.00001612,0.06189644,0.01019927,-0.04302464,0.04000565,0.03291568,
 -0.00000093,-0.00000145,0.00000067,-0.04450348,0.05729225,-0.01917422\
 \\@


 THE PROMISED LAND ALWAYS LIES ON THE OTHER SIDE OF A WILDERNESS.

                         -- HAVELOCK ELLIS
 Job cpu time:       0 days  0 hours  0 minutes 23.8 seconds.
 File lengths (MBytes):  RWF=     12 Int=      0 D2E=      0 Chk=      2 Scr=      1
 Normal termination of Gaussian 09 at Sat Mar  4 13:43:48 2017.
