 Entering Gaussian System, Link 0=g09
 Input=/home/thomas/cf4/DD-vMCG/dd_data/gwp6_V1_dd_data.com
 Output=/home/thomas/cf4/DD-vMCG/dd_data/gwp6_V1_dd_data.log
 Initial command:
 /mnt/software/gaussian/g09/l1.exe "/scratch/Gau-31374.inp" -scrdir="/scratch/"
 Entering Link 1 = /mnt/software/gaussian/g09/l1.exe PID=     31376.
  
 Copyright (c) 1988,1990,1992,1993,1995,1998,2003,2009,2013,
            Gaussian, Inc.  All Rights Reserved.
  
 This is part of the Gaussian(R) 09 program.  It is based on
 the Gaussian(R) 03 system (copyright 2003, Gaussian, Inc.),
 the Gaussian(R) 98 system (copyright 1998, Gaussian, Inc.),
 the Gaussian(R) 94 system (copyright 1995, Gaussian, Inc.),
 the Gaussian 92(TM) system (copyright 1992, Gaussian, Inc.),
 the Gaussian 90(TM) system (copyright 1990, Gaussian, Inc.),
 the Gaussian 88(TM) system (copyright 1988, Gaussian, Inc.),
 the Gaussian 86(TM) system (copyright 1986, Carnegie Mellon
 University), and the Gaussian 82(TM) system (copyright 1983,
 Carnegie Mellon University). Gaussian is a federally registered
 trademark of Gaussian, Inc.
  
 This software contains proprietary and confidential information,
 including trade secrets, belonging to Gaussian, Inc.
  
 This software is provided under written license and may be
 used, copied, transmitted, or stored only in accord with that
 written license.
  
 The following legend is applicable only to US Government
 contracts under FAR:
  
                    RESTRICTED RIGHTS LEGEND
  
 Use, reproduction and disclosure by the US Government is
 subject to restrictions as set forth in subparagraphs (a)
 and (c) of the Commercial Computer Software - Restricted
 Rights clause in FAR 52.227-19.
  
 Gaussian, Inc.
 340 Quinnipiac St., Bldg. 40, Wallingford CT 06492
  
  
 ---------------------------------------------------------------
 Warning -- This program may not be used in any manner that
 competes with the business of Gaussian, Inc. or will provide
 assistance to any competitor of Gaussian, Inc.  The licensee
 of this program is prohibited from giving any competitor of
 Gaussian, Inc. access to this program.  By using this program,
 the user acknowledges that Gaussian, Inc. is engaged in the
 business of creating and licensing software in the field of
 computational chemistry and represents and warrants to the
 licensee that it is not a competitor of Gaussian, Inc. and that
 it will not use this program in any manner prohibited above.
 ---------------------------------------------------------------
  

 Cite this work as:
 Gaussian 09, Revision D.01,
 M. J. Frisch, G. W. Trucks, H. B. Schlegel, G. E. Scuseria, 
 M. A. Robb, J. R. Cheeseman, G. Scalmani, V. Barone, B. Mennucci, 
 G. A. Petersson, H. Nakatsuji, M. Caricato, X. Li, H. P. Hratchian, 
 A. F. Izmaylov, J. Bloino, G. Zheng, J. L. Sonnenberg, M. Hada, 
 M. Ehara, K. Toyota, R. Fukuda, J. Hasegawa, M. Ishida, T. Nakajima, 
 Y. Honda, O. Kitao, H. Nakai, T. Vreven, J. A. Montgomery, Jr., 
 J. E. Peralta, F. Ogliaro, M. Bearpark, J. J. Heyd, E. Brothers, 
 K. N. Kudin, V. N. Staroverov, T. Keith, R. Kobayashi, J. Normand, 
 K. Raghavachari, A. Rendell, J. C. Burant, S. S. Iyengar, J. Tomasi, 
 M. Cossi, N. Rega, J. M. Millam, M. Klene, J. E. Knox, J. B. Cross, 
 V. Bakken, C. Adamo, J. Jaramillo, R. Gomperts, R. E. Stratmann, 
 O. Yazyev, A. J. Austin, R. Cammi, C. Pomelli, J. W. Ochterski, 
 R. L. Martin, K. Morokuma, V. G. Zakrzewski, G. A. Voth, 
 P. Salvador, J. J. Dannenberg, S. Dapprich, A. D. Daniels, 
 O. Farkas, J. B. Foresman, J. V. Ortiz, J. Cioslowski, 
 and D. J. Fox, Gaussian, Inc., Wallingford CT, 2013.
 
 ******************************************
 Gaussian 09:  ES64L-G09RevD.01 24-Apr-2013
                 4-Mar-2017 
 ******************************************
 %mem=5000MB
 %Nprocshared=6
 Will use up to    6 processors via shared memory.
 %chk=gwp6_V1_dd_data.chk
 ------------------------------------------
 #P UHF/6-31g* IOP(7/33=1) IOP(7/8=11) Freq
 ------------------------------------------
 1/10=4,30=1,38=1/1,3;
 2/12=2,17=6,18=5,40=1/2;
 3/5=1,6=6,7=1,11=2,16=1,25=1,30=1,71=2,116=2,140=1/1,2,3;
 4//1;
 5/5=2,38=5,98=1/2;
 8/6=4,10=90,11=11/1;
 10/13=10,15=4/2;
 11/6=3,8=1,9=11,15=111,16=1/1,2,10;
 10/6=1/2;
 6/7=2,8=2,9=2,10=2,18=1,28=1/1;
 7/8=11,10=1,25=1,33=1/1,2,3,16;
 1/10=4,30=1/3;
 99//99;
 Leave Link    1 at Sat Mar  4 13:40:45 2017, MaxMem=   655360000 cpu:         0.2
 (Enter /mnt/software/gaussian/g09/l101.exe)
 -----------------
 Distorted Ethanol
 -----------------
 Symbolic Z-matrix:
 Charge =  1 Multiplicity = 2
 6                    -0.49305   5.51589  -0.68816 
 9                    -0.09903   4.40322  -0.00611 
 9                     0.18198   6.47249  -0.47963 
 9                    -2.24804  -8.65178   2.87003 
 9                    -0.84125   5.26828  -1.8459 
 
 NAtoms=      5 NQM=        5 NQMF=       0 NMMI=      0 NMMIF=      0
                NMic=       0 NMicF=      0.
                    Isotopes and Nuclear Properties:
 (Nuclear quadrupole moments (NQMom) in fm**2, nuclear magnetic moments (NMagM)
  in nuclear magnetons)

  Atom         1           2           3           4           5
 IAtWgt=          12          19          19          19          19
 AtmWgt=  12.0000000  18.9984033  18.9984033  18.9984033  18.9984033
 NucSpn=           0           1           1           1           1
 AtZEff=   0.0000000   0.0000000   0.0000000   0.0000000   0.0000000
 NQMom=    0.0000000   0.0000000   0.0000000   0.0000000   0.0000000
 NMagM=    0.0000000   2.6288670   2.6288670   2.6288670   2.6288670
 AtZNuc=   6.0000000   9.0000000   9.0000000   9.0000000   9.0000000
 Leave Link  101 at Sat Mar  4 13:40:45 2017, MaxMem=   655360000 cpu:         0.3
 (Enter /mnt/software/gaussian/g09/l103.exe)

 GradGradGradGradGradGradGradGradGradGradGradGradGradGradGradGradGradGrad
 Berny optimization.
 Initialization pass.
 Trust Radius=3.00D-01 FncErr=1.00D-07 GrdErr=1.00D-07
 Number of steps in this run=      2 maximum allowed number of steps=      2.
 GradGradGradGradGradGradGradGradGradGradGradGradGradGradGradGradGradGrad

 Leave Link  103 at Sat Mar  4 13:40:45 2017, MaxMem=   655360000 cpu:         0.1
 (Enter /mnt/software/gaussian/g09/l202.exe)
                          Input orientation:                          
 ---------------------------------------------------------------------
 Center     Atomic      Atomic             Coordinates (Angstroms)
 Number     Number       Type             X           Y           Z
 ---------------------------------------------------------------------
      1          6           0       -0.493047    5.515892   -0.688155
      2          9           0       -0.099032    4.403219   -0.006114
      3          9           0        0.181982    6.472491   -0.479632
      4          9           0       -2.248042   -8.651780    2.870034
      5          9           0       -0.841246    5.268284   -1.845898
 ---------------------------------------------------------------------
                    Distance matrix (angstroms):
                    1          2          3          4          5
     1  C    0.000000
     2  F    1.363257   0.000000
     3  F    1.189213   2.141279   0.000000
     4  F   14.712704  13.539700  15.680206   0.000000
     5  F    1.234067   2.164261   2.088969  14.764392   0.000000
 Stoichiometry    CF4(1+,2)
 Framework group  C1[X(CF4)]
 Deg. of freedom     9
 Full point group                 C1      NOp   1
 Largest Abelian subgroup         C1      NOp   1
 Largest concise Abelian subgroup C1      NOp   1
                         Standard orientation:                         
 ---------------------------------------------------------------------
 Center     Atomic      Atomic             Coordinates (Angstroms)
 Number     Number       Type             X           Y           Z
 ---------------------------------------------------------------------
      1          6           0        3.200651    0.015341    0.227207
      2          9           0        2.015969   -0.591640   -0.067020
      3          9           0        4.156411   -0.642024   -0.034749
      4          9           0      -11.510343    0.006227    0.003127
      5          9           0        3.204196    1.217210   -0.052829
 ---------------------------------------------------------------------
 Rotational constants (GHZ):     11.6410737      0.1559235      0.1539358
 Leave Link  202 at Sat Mar  4 13:40:45 2017, MaxMem=   655360000 cpu:         0.0
 (Enter /mnt/software/gaussian/g09/l301.exe)
 Standard basis: 6-31G(d) (6D, 7F)
 Ernie: Thresh=  0.10000D-02 Tol=  0.10000D-05 Strict=F.
 There are    75 symmetry adapted cartesian basis functions of A   symmetry.
 There are    75 symmetry adapted basis functions of A   symmetry.
    75 basis functions,   140 primitive gaussians,    75 cartesian basis functions
    21 alpha electrons       20 beta electrons
       nuclear repulsion energy       139.2322028437 Hartrees.
 IExCor=    0 DFT=F Ex=HF Corr=None ExCW=0 ScaHFX=  1.000000
 ScaDFX=  1.000000  1.000000  1.000000  1.000000 ScalE2=  1.000000  1.000000
 IRadAn=      0 IRanWt=     -1 IRanGd=            0 ICorTp=0 IEmpDi=  4
 NAtoms=    5 NActive=    5 NUniq=    5 SFac= 1.00D+00 NAtFMM=   60 NAOKFM=F Big=F
 Integral buffers will be    131072 words long.
 Raffenetti 2 integral format.
 Two-electron integral symmetry is turned on.
 Leave Link  301 at Sat Mar  4 13:40:45 2017, MaxMem=   655360000 cpu:         0.3
 (Enter /mnt/software/gaussian/g09/l302.exe)
 NPDir=0 NMtPBC=     1 NCelOv=     1 NCel=       1 NClECP=     1 NCelD=      1
         NCelK=      1 NCelE2=     1 NClLst=     1 CellRange=     0.0.
 One-electron integrals computed using PRISM.
 NBasis=    75 RedAO= T EigKep=  3.57D-03  NBF=    75
 NBsUse=    75 1.00D-06 EigRej= -1.00D+00 NBFU=    75
 Leave Link  302 at Sat Mar  4 13:40:45 2017, MaxMem=   655360000 cpu:         0.8
 (Enter /mnt/software/gaussian/g09/l303.exe)
 DipDrv:  MaxL=1.
 Leave Link  303 at Sat Mar  4 13:40:45 2017, MaxMem=   655360000 cpu:         0.1
 (Enter /mnt/software/gaussian/g09/l401.exe)
 ExpMin= 1.69D-01 ExpMax= 7.00D+03 ExpMxC= 1.05D+03 IAcc=1 IRadAn=         1 AccDes= 0.00D+00
 Harris functional with IExCor=  205 and IRadAn=       1 diagonalized for initial guess.
 HarFok:  IExCor=  205 AccDes= 0.00D+00 IRadAn=         1 IDoV= 1 UseB2=F ITyADJ=14
 ICtDFT=  3500011 ScaDFX=  1.000000  1.000000  1.000000  1.000000
 FoFCou: FMM=F IPFlag=           0 FMFlag=      100000 FMFlg1=           0
         NFxFlg=           0 DoJE=T BraDBF=F KetDBF=T FulRan=T
         wScrn=  0.000000 ICntrl=     500 IOpCl=  0 I1Cent=   200000004 NGrid=           0
         NMat0=    1 NMatS0=      1 NMatT0=    0 NMatD0=    1 NMtDS0=    0 NMtDT0=    0
 Petite list used in FoFCou.
 Harris En= -435.011825496795    
 JPrj=0 DoOrth=F DoCkMO=F.
 Initial guess <Sx>= 0.0000 <Sy>= 0.0000 <Sz>= 0.5000 <S**2>= 0.7500 S= 0.5000
 Leave Link  401 at Sat Mar  4 13:40:45 2017, MaxMem=   655360000 cpu:         0.8
 (Enter /mnt/software/gaussian/g09/l502.exe)
 UHF open shell SCF:
 Using DIIS extrapolation, IDIIS=  1040.
 Integral symmetry usage will be decided dynamically.
 Keep R1 and R2 ints in memory in canonical form, NReq=8999582.
 IVT=       36430 IEndB=       36430 NGot=   655360000 MDV=   647198221
 LenX=   647198221 LenY=   647192155
 Requested convergence on RMS density matrix=1.00D-08 within 128 cycles.
 Requested convergence on MAX density matrix=1.00D-06.
 Requested convergence on             energy=1.00D-06.
 No special actions if energy rises.
 FoFCou: FMM=F IPFlag=           0 FMFlag=           0 FMFlg1=           0
         NFxFlg=           0 DoJE=F BraDBF=F KetDBF=F FulRan=T
         wScrn=  0.000000 ICntrl=     600 IOpCl=  0 I1Cent=           0 NGrid=           0
         NMat0=    1 NMatS0=   2850 NMatT0=    0 NMatD0=    1 NMtDS0=    0 NMtDT0=    0
 Symmetry not used in FoFCou.

 Cycle   1  Pass 1  IDiag  1:
 E= -435.029746456479    
 DIIS: error= 7.71D-02 at cycle   1 NSaved=   1.
 NSaved= 1 IEnMin= 1 EnMin= -435.029746456479     IErMin= 1 ErrMin= 7.71D-02
 ErrMax= 7.71D-02  0.00D+00 EMaxC= 1.00D-01 BMatC= 1.03D+00 BMatP= 1.03D+00
 IDIUse=3 WtCom= 2.29D-01 WtEn= 7.71D-01
 Coeff-Com:  0.100D+01
 Coeff-En:   0.100D+01
 Coeff:      0.100D+01
 Gap=     0.485 Goal=   None    Shift=    0.000
 Gap=     0.788 Goal=   None    Shift=    0.000
 GapD=    0.485 DampG=2.000 DampE=0.500 DampFc=1.0000 IDamp=-1.
 RMSDP=3.97D-03 MaxDP=6.40D-02              OVMax= 6.97D-02

 Cycle   2  Pass 1  IDiag  1:
 E= -435.101546357183     Delta-E=       -0.071799900704 Rises=F Damp=F
 DIIS: error= 1.63D-02 at cycle   2 NSaved=   2.
 NSaved= 2 IEnMin= 2 EnMin= -435.101546357183     IErMin= 2 ErrMin= 1.63D-02
 ErrMax= 1.63D-02  0.00D+00 EMaxC= 1.00D-01 BMatC= 7.68D-02 BMatP= 1.03D+00
 IDIUse=3 WtCom= 8.37D-01 WtEn= 1.63D-01
 Coeff-Com:  0.108D+00 0.892D+00
 Coeff-En:   0.000D+00 0.100D+01
 Coeff:      0.908D-01 0.909D+00
 Gap=     0.463 Goal=   None    Shift=    0.000
 Gap=     0.416 Goal=   None    Shift=    0.000
 RMSDP=1.57D-03 MaxDP=2.68D-02 DE=-7.18D-02 OVMax= 4.69D-02

 Cycle   3  Pass 1  IDiag  1:
 E= -435.112628198132     Delta-E=       -0.011081840948 Rises=F Damp=F
 DIIS: error= 6.66D-03 at cycle   3 NSaved=   3.
 NSaved= 3 IEnMin= 3 EnMin= -435.112628198132     IErMin= 3 ErrMin= 6.66D-03
 ErrMax= 6.66D-03  0.00D+00 EMaxC= 1.00D-01 BMatC= 2.33D-02 BMatP= 7.68D-02
 IDIUse=3 WtCom= 9.33D-01 WtEn= 6.66D-02
 Coeff-Com: -0.237D-01 0.334D+00 0.690D+00
 Coeff-En:   0.000D+00 0.000D+00 0.100D+01
 Coeff:     -0.221D-01 0.312D+00 0.711D+00
 Gap=     0.453 Goal=   None    Shift=    0.000
 Gap=     0.405 Goal=   None    Shift=    0.000
 RMSDP=5.18D-04 MaxDP=1.24D-02 DE=-1.11D-02 OVMax= 1.38D-02

 Cycle   4  Pass 1  IDiag  1:
 E= -435.116356091735     Delta-E=       -0.003727893603 Rises=F Damp=F
 DIIS: error= 1.25D-03 at cycle   4 NSaved=   4.
 NSaved= 4 IEnMin= 4 EnMin= -435.116356091735     IErMin= 4 ErrMin= 1.25D-03
 ErrMax= 1.25D-03  0.00D+00 EMaxC= 1.00D-01 BMatC= 4.47D-04 BMatP= 2.33D-02
 IDIUse=3 WtCom= 9.87D-01 WtEn= 1.25D-02
 Coeff-Com: -0.473D-02-0.608D-01-0.421D-01 0.111D+01
 Coeff-En:   0.000D+00 0.000D+00 0.000D+00 0.100D+01
 Coeff:     -0.467D-02-0.601D-01-0.416D-01 0.111D+01
 Gap=     0.453 Goal=   None    Shift=    0.000
 Gap=     0.404 Goal=   None    Shift=    0.000
 RMSDP=1.64D-04 MaxDP=2.26D-03 DE=-3.73D-03 OVMax= 4.18D-03

 Cycle   5  Pass 1  IDiag  1:
 E= -435.116555695831     Delta-E=       -0.000199604096 Rises=F Damp=F
 DIIS: error= 5.19D-04 at cycle   5 NSaved=   5.
 NSaved= 5 IEnMin= 5 EnMin= -435.116555695831     IErMin= 5 ErrMin= 5.19D-04
 ErrMax= 5.19D-04  0.00D+00 EMaxC= 1.00D-01 BMatC= 5.46D-05 BMatP= 4.47D-04
 IDIUse=3 WtCom= 9.95D-01 WtEn= 5.19D-03
 Coeff-Com:  0.367D-02-0.325D-01-0.741D-01-0.721D-01 0.117D+01
 Coeff-En:   0.000D+00 0.000D+00 0.000D+00 0.000D+00 0.100D+01
 Coeff:      0.365D-02-0.323D-01-0.737D-01-0.717D-01 0.117D+01
 Gap=     0.455 Goal=   None    Shift=    0.000
 Gap=     0.404 Goal=   None    Shift=    0.000
 RMSDP=7.20D-05 MaxDP=1.22D-03 DE=-2.00D-04 OVMax= 2.24D-03

 Cycle   6  Pass 1  IDiag  1:
 E= -435.116587177815     Delta-E=       -0.000031481985 Rises=F Damp=F
 DIIS: error= 1.63D-04 at cycle   6 NSaved=   6.
 NSaved= 6 IEnMin= 6 EnMin= -435.116587177815     IErMin= 6 ErrMin= 1.63D-04
 ErrMax= 1.63D-04  0.00D+00 EMaxC= 1.00D-01 BMatC= 6.09D-06 BMatP= 5.46D-05
 IDIUse=3 WtCom= 9.98D-01 WtEn= 1.63D-03
 Coeff-Com:  0.895D-03-0.142D-02-0.783D-02-0.881D-01 0.146D+00 0.950D+00
 Coeff-En:   0.000D+00 0.000D+00 0.000D+00 0.000D+00 0.000D+00 0.100D+01
 Coeff:      0.893D-03-0.142D-02-0.781D-02-0.879D-01 0.146D+00 0.950D+00
 Gap=     0.456 Goal=   None    Shift=    0.000
 Gap=     0.404 Goal=   None    Shift=    0.000
 RMSDP=1.92D-05 MaxDP=4.13D-04 DE=-3.15D-05 OVMax= 7.38D-04

 Cycle   7  Pass 1  IDiag  1:
 E= -435.116589671735     Delta-E=       -0.000002493919 Rises=F Damp=F
 DIIS: error= 4.41D-05 at cycle   7 NSaved=   7.
 NSaved= 7 IEnMin= 7 EnMin= -435.116589671735     IErMin= 7 ErrMin= 4.41D-05
 ErrMax= 4.41D-05  0.00D+00 EMaxC= 1.00D-01 BMatC= 9.67D-07 BMatP= 6.09D-06
 IDIUse=1 WtCom= 1.00D+00 WtEn= 0.00D+00
 Coeff-Com: -0.549D-03 0.573D-02 0.129D-01 0.303D-02-0.195D+00 0.159D+00
 Coeff-Com:  0.102D+01
 Coeff:     -0.549D-03 0.573D-02 0.129D-01 0.303D-02-0.195D+00 0.159D+00
 Coeff:      0.102D+01
 Gap=     0.456 Goal=   None    Shift=    0.000
 Gap=     0.404 Goal=   None    Shift=    0.000
 RMSDP=8.52D-06 MaxDP=1.48D-04 DE=-2.49D-06 OVMax= 2.67D-04

 Cycle   8  Pass 1  IDiag  1:
 E= -435.116590098918     Delta-E=       -0.000000427184 Rises=F Damp=F
 DIIS: error= 2.00D-05 at cycle   8 NSaved=   8.
 NSaved= 8 IEnMin= 8 EnMin= -435.116590098918     IErMin= 8 ErrMin= 2.00D-05
 ErrMax= 2.00D-05  0.00D+00 EMaxC= 1.00D-01 BMatC= 5.93D-08 BMatP= 9.67D-07
 IDIUse=1 WtCom= 1.00D+00 WtEn= 0.00D+00
 Coeff-Com:  0.135D-03-0.192D-02-0.426D-02 0.536D-02 0.574D-01-0.110D+00
 Coeff-Com: -0.366D+00 0.142D+01
 Coeff:      0.135D-03-0.192D-02-0.426D-02 0.536D-02 0.574D-01-0.110D+00
 Coeff:     -0.366D+00 0.142D+01
 Gap=     0.456 Goal=   None    Shift=    0.000
 Gap=     0.404 Goal=   None    Shift=    0.000
 RMSDP=3.22D-06 MaxDP=6.17D-05 DE=-4.27D-07 OVMax= 1.33D-04

 Cycle   9  Pass 1  IDiag  1:
 E= -435.116590147275     Delta-E=       -0.000000048357 Rises=F Damp=F
 DIIS: error= 7.56D-06 at cycle   9 NSaved=   9.
 NSaved= 9 IEnMin= 9 EnMin= -435.116590147275     IErMin= 9 ErrMin= 7.56D-06
 ErrMax= 7.56D-06  0.00D+00 EMaxC= 1.00D-01 BMatC= 6.25D-09 BMatP= 5.93D-08
 IDIUse=1 WtCom= 1.00D+00 WtEn= 0.00D+00
 Coeff-Com:  0.591D-04-0.689D-03-0.150D-02 0.874D-04 0.226D-01-0.227D-01
 Coeff-Com: -0.128D+00 0.112D+00 0.102D+01
 Coeff:      0.591D-04-0.689D-03-0.150D-02 0.874D-04 0.226D-01-0.227D-01
 Coeff:     -0.128D+00 0.112D+00 0.102D+01
 Gap=     0.456 Goal=   None    Shift=    0.000
 Gap=     0.404 Goal=   None    Shift=    0.000
 RMSDP=8.99D-07 MaxDP=1.45D-05 DE=-4.84D-08 OVMax= 3.63D-05

 Cycle  10  Pass 1  IDiag  1:
 E= -435.116590151946     Delta-E=       -0.000000004671 Rises=F Damp=F
 DIIS: error= 7.56D-06 at cycle  10 NSaved=  10.
 NSaved=10 IEnMin=10 EnMin= -435.116590151946     IErMin=10 ErrMin= 7.56D-06
 ErrMax= 7.56D-06  0.00D+00 EMaxC= 1.00D-01 BMatC= 1.30D-09 BMatP= 6.25D-09
 IDIUse=1 WtCom= 1.00D+00 WtEn= 0.00D+00
 Coeff-Com: -0.207D-04 0.286D-03 0.655D-03-0.663D-03-0.900D-02 0.156D-01
 Coeff-Com:  0.528D-01-0.165D+00-0.151D+00 0.126D+01
 Coeff:     -0.207D-04 0.286D-03 0.655D-03-0.663D-03-0.900D-02 0.156D-01
 Coeff:      0.528D-01-0.165D+00-0.151D+00 0.126D+01
 Gap=     0.456 Goal=   None    Shift=    0.000
 Gap=     0.404 Goal=   None    Shift=    0.000
 RMSDP=4.41D-07 MaxDP=1.24D-05 DE=-4.67D-09 OVMax= 3.15D-05

 Cycle  11  Pass 1  IDiag  1:
 E= -435.116590153534     Delta-E=       -0.000000001588 Rises=F Damp=F
 DIIS: error= 7.56D-06 at cycle  11 NSaved=  11.
 NSaved=11 IEnMin=11 EnMin= -435.116590153534     IErMin=11 ErrMin= 7.56D-06
 ErrMax= 7.56D-06  0.00D+00 EMaxC= 1.00D-01 BMatC= 7.82D-10 BMatP= 1.30D-09
 IDIUse=1 WtCom= 1.00D+00 WtEn= 0.00D+00
 Coeff-Com: -0.506D-05 0.612D-04 0.136D-03-0.211D-04-0.210D-02 0.286D-02
 Coeff-Com:  0.108D-01-0.158D-01-0.797D-01 0.655D-01 0.102D+01
 Coeff:     -0.506D-05 0.612D-04 0.136D-03-0.211D-04-0.210D-02 0.286D-02
 Coeff:      0.108D-01-0.158D-01-0.797D-01 0.655D-01 0.102D+01
 Gap=     0.456 Goal=   None    Shift=    0.000
 Gap=     0.404 Goal=   None    Shift=    0.000
 RMSDP=2.42D-07 MaxDP=1.03D-05 DE=-1.59D-09 OVMax= 2.54D-05

 Cycle  12  Pass 1  IDiag  1:
 E= -435.116590154479     Delta-E=       -0.000000000945 Rises=F Damp=F
 DIIS: error= 7.56D-06 at cycle  12 NSaved=  12.
 NSaved=12 IEnMin=12 EnMin= -435.116590154479     IErMin=12 ErrMin= 7.56D-06
 ErrMax= 7.56D-06  0.00D+00 EMaxC= 1.00D-01 BMatC= 7.35D-10 BMatP= 7.82D-10
 IDIUse=1 WtCom= 1.00D+00 WtEn= 0.00D+00
 Coeff-Com:  0.235D-05-0.355D-04-0.803D-04 0.121D-03 0.102D-02-0.189D-02
 Coeff-Com: -0.679D-02 0.248D-01 0.705D-02-0.204D+00 0.226D+00 0.954D+00
 Coeff:      0.235D-05-0.355D-04-0.803D-04 0.121D-03 0.102D-02-0.189D-02
 Coeff:     -0.679D-02 0.248D-01 0.705D-02-0.204D+00 0.226D+00 0.954D+00
 Gap=     0.456 Goal=   None    Shift=    0.000
 Gap=     0.404 Goal=   None    Shift=    0.000
 RMSDP=2.40D-07 MaxDP=1.05D-05 DE=-9.45D-10 OVMax= 2.62D-05

 Cycle  13  Pass 1  IDiag  1:
 E= -435.116590155435     Delta-E=       -0.000000000956 Rises=F Damp=F
 DIIS: error= 7.56D-06 at cycle  13 NSaved=  13.
 NSaved=13 IEnMin=13 EnMin= -435.116590155435     IErMin=13 ErrMin= 7.56D-06
 ErrMax= 7.56D-06  0.00D+00 EMaxC= 1.00D-01 BMatC= 7.25D-10 BMatP= 7.35D-10
 IDIUse=1 WtCom= 1.00D+00 WtEn= 0.00D+00
 Coeff-Com: -0.131D-06 0.265D-05 0.774D-05-0.195D-04-0.771D-04 0.195D-03
 Coeff-Com:  0.642D-03-0.365D-02 0.327D-02 0.370D-01-0.122D+00-0.175D+00
 Coeff-Com:  0.126D+01
 Coeff:     -0.131D-06 0.265D-05 0.774D-05-0.195D-04-0.771D-04 0.195D-03
 Coeff:      0.642D-03-0.365D-02 0.327D-02 0.370D-01-0.122D+00-0.175D+00
 Coeff:      0.126D+01
 Gap=     0.456 Goal=   None    Shift=    0.000
 Gap=     0.404 Goal=   None    Shift=    0.000
 RMSDP=2.78D-07 MaxDP=1.19D-05 DE=-9.56D-10 OVMax= 3.05D-05

 Cycle  14  Pass 1  IDiag  1:
 E= -435.116590156544     Delta-E=       -0.000000001109 Rises=F Damp=F
 DIIS: error= 7.56D-06 at cycle  14 NSaved=  14.
 NSaved=14 IEnMin=14 EnMin= -435.116590156544     IErMin=14 ErrMin= 7.56D-06
 ErrMax= 7.56D-06  0.00D+00 EMaxC= 1.00D-01 BMatC= 7.25D-10 BMatP= 7.25D-10
 IDIUse=1 WtCom= 1.00D+00 WtEn= 0.00D+00
 Coeff-Com: -0.116D-06 0.158D-05 0.251D-05-0.186D-05-0.404D-04 0.718D-04
 Coeff-Com:  0.203D-03-0.447D-03-0.171D-02 0.265D-02 0.252D-01-0.611D-02
 Coeff-Com: -0.498D+00 0.148D+01
 Coeff:     -0.116D-06 0.158D-05 0.251D-05-0.186D-05-0.404D-04 0.718D-04
 Coeff:      0.203D-03-0.447D-03-0.171D-02 0.265D-02 0.252D-01-0.611D-02
 Coeff:     -0.498D+00 0.148D+01
 Gap=     0.456 Goal=   None    Shift=    0.000
 Gap=     0.404 Goal=   None    Shift=    0.000
 RMSDP=3.29D-07 MaxDP=1.41D-05 DE=-1.11D-09 OVMax= 3.62D-05

 Cycle  15  Pass 1  IDiag  1:
 E= -435.116590157856     Delta-E=       -0.000000001312 Rises=F Damp=F
 DIIS: error= 7.56D-06 at cycle  15 NSaved=  15.
 NSaved=15 IEnMin=15 EnMin= -435.116590157856     IErMin=15 ErrMin= 7.56D-06
 ErrMax= 7.56D-06  0.00D+00 EMaxC= 1.00D-01 BMatC= 7.25D-10 BMatP= 7.25D-10
 IDIUse=1 WtCom= 1.00D+00 WtEn= 0.00D+00
 Coeff-Com:  0.306D-06-0.452D-05-0.936D-05 0.140D-04 0.122D-03-0.254D-03
 Coeff-Com: -0.755D-03 0.291D-02 0.200D-02-0.263D-01 0.109D-01 0.116D+00
 Coeff-Com:  0.397D+00-0.348D+01 0.398D+01
 Coeff:      0.306D-06-0.452D-05-0.936D-05 0.140D-04 0.122D-03-0.254D-03
 Coeff:     -0.755D-03 0.291D-02 0.200D-02-0.263D-01 0.109D-01 0.116D+00
 Coeff:      0.397D+00-0.348D+01 0.398D+01
 Gap=     0.456 Goal=   None    Shift=    0.000
 Gap=     0.404 Goal=   None    Shift=    0.000
 RMSDP=1.03D-06 MaxDP=4.40D-05 DE=-1.31D-09 OVMax= 1.13D-04

 Cycle  16  Pass 1  IDiag  1:
 E= -435.116590161966     Delta-E=       -0.000000004110 Rises=F Damp=F
 DIIS: error= 7.56D-06 at cycle  16 NSaved=  16.
 NSaved=16 IEnMin=16 EnMin= -435.116590161966     IErMin=16 ErrMin= 7.56D-06
 ErrMax= 7.56D-06  0.00D+00 EMaxC= 1.00D-01 BMatC= 7.25D-10 BMatP= 7.25D-10
 IDIUse=1 WtCom= 1.00D+00 WtEn= 0.00D+00
 Large coefficients: NSaved= 16 BigCof=    0.00 CofMax=   10.00 Det=-1.23D-15
 Inversion failed.  Reducing to 15 matrices.
 Large coefficients: NSaved= 15 BigCof=   18.68 CofMax=   10.00 Det=-1.49D-15
 Inversion failed.  Reducing to 14 matrices.
 Large coefficients: NSaved= 14 BigCof=   17.79 CofMax=   10.00 Det=-1.60D-15
 Inversion failed.  Reducing to 13 matrices.
 Large coefficients: NSaved= 13 BigCof=   14.84 CofMax=   10.00 Det=-1.72D-15
 Inversion failed.  Reducing to 12 matrices.
 Large coefficients: NSaved= 12 BigCof=   14.25 CofMax=   10.00 Det=-1.80D-15
 Inversion failed.  Reducing to 11 matrices.
 Large coefficients: NSaved= 11 BigCof=   13.86 CofMax=   10.00 Det=-1.83D-15
 Inversion failed.  Reducing to 10 matrices.
 Large coefficients: NSaved= 10 BigCof=   13.78 CofMax=   10.00 Det=-1.92D-15
 Inversion failed.  Reducing to  9 matrices.
 Large coefficients: NSaved=  9 BigCof=   13.75 CofMax=   10.00 Det=-1.92D-15
 Inversion failed.  Reducing to  8 matrices.
 Large coefficients: NSaved=  8 BigCof=   13.51 CofMax=   10.00 Det=-2.02D-15
 Inversion failed.  Reducing to  7 matrices.
 Large coefficients: NSaved=  7 BigCof=   13.02 CofMax=   10.00 Det=-2.12D-15
 Inversion failed.  Reducing to  6 matrices.
 Large coefficients: NSaved=  6 BigCof=   12.44 CofMax=   10.00 Det=-2.33D-15
 Inversion failed.  Reducing to  5 matrices.
 Large coefficients: NSaved=  5 BigCof=   12.07 CofMax=   10.00 Det=-2.42D-15
 Inversion failed.  Reducing to  4 matrices.
 Large coefficients: NSaved=  4 BigCof=   10.28 CofMax=   10.00 Det=-2.88D-15
 Inversion failed.  Reducing to  3 matrices.
 Coeff-Com:  0.358D+01-0.941D+01 0.683D+01
 Coeff:      0.358D+01-0.941D+01 0.683D+01
 Gap=     0.456 Goal=   None    Shift=    0.000
 Gap=     0.404 Goal=   None    Shift=    0.000
 RMSDP=5.04D-06 MaxDP=2.15D-04 DE=-4.11D-09 OVMax= 5.54D-04

 Cycle  17  Pass 1  IDiag  1:
 E= -435.116590182051     Delta-E=       -0.000000020085 Rises=F Damp=F
 DIIS: error= 7.56D-06 at cycle  17 NSaved=   4.
 NSaved= 4 IEnMin= 4 EnMin= -435.116590182051     IErMin= 4 ErrMin= 7.56D-06
 ErrMax= 7.56D-06  0.00D+00 EMaxC= 1.00D-01 BMatC= 7.24D-10 BMatP= 7.25D-10
 IDIUse=1 WtCom= 1.00D+00 WtEn= 0.00D+00
 Coeff-Com:  0.318D+01-0.539D+01-0.272D+01 0.593D+01
 Coeff:      0.318D+01-0.539D+01-0.272D+01 0.593D+01
 Gap=     0.456 Goal=   None    Shift=    0.000
 Gap=     0.404 Goal=   None    Shift=    0.000
 RMSDP=2.63D-05 MaxDP=1.12D-03 DE=-2.01D-08 OVMax= 2.89D-03

 Cycle  18  Pass 1  IDiag  1:
 E= -435.116590286641     Delta-E=       -0.000000104590 Rises=F Damp=F
 DIIS: error= 7.53D-06 at cycle  18 NSaved=   5.
 NSaved= 5 IEnMin= 5 EnMin= -435.116590286641     IErMin= 5 ErrMin= 7.53D-06
 ErrMax= 7.53D-06  0.00D+00 EMaxC= 1.00D-01 BMatC= 7.29D-10 BMatP= 7.24D-10
 IDIUse=1 WtCom= 1.00D+00 WtEn= 0.00D+00
 Coeff-Com:  0.344D+01-0.553D+01-0.248D+01 0.546D+01 0.119D+00
 Coeff:      0.344D+01-0.553D+01-0.248D+01 0.546D+01 0.119D+00
 Gap=     0.456 Goal=   None    Shift=    0.000
 Gap=     0.404 Goal=   None    Shift=    0.000
 RMSDP=1.13D-06 MaxDP=4.81D-05 DE=-1.05D-07 OVMax= 1.24D-04

 Cycle  19  Pass 1  IDiag  1:
 E= -435.116590291132     Delta-E=       -0.000000004490 Rises=F Damp=F
 DIIS: error= 7.53D-06 at cycle  19 NSaved=   6.
 NSaved= 6 IEnMin= 6 EnMin= -435.116590291132     IErMin= 6 ErrMin= 7.53D-06
 ErrMax= 7.53D-06  0.00D+00 EMaxC= 1.00D-01 BMatC= 7.28D-10 BMatP= 7.24D-10
 IDIUse=1 WtCom= 1.00D+00 WtEn= 0.00D+00
 Large coefficients: NSaved=  6 BigCof=   13.16 CofMax=   10.00 Det=-3.34D-15
 Inversion failed.  Reducing to  5 matrices.
 Large coefficients: NSaved=  5 BigCof=   13.15 CofMax=   10.00 Det=-1.03D-14
 Inversion failed.  Reducing to  4 matrices.
 Large coefficients: NSaved=  4 BigCof=   10.29 CofMax=   10.00 Det=-1.82D-14
 Inversion failed.  Reducing to  3 matrices.
 Large coefficients: NSaved=  3 BigCof=   11.88 CofMax=   10.00 Det=-1.90D-14
 Inversion failed.  Reducing to  2 matrices.
 Large coefficients: NSaved=  2 BigCof=   16.22 CofMax=   10.00 Det=-2.97D-14
 Coeff-Com: -0.152D+02 0.162D+02
 Coeff:     -0.152D+02 0.162D+02
 Gap=     0.456 Goal=   None    Shift=    0.000
 Gap=     0.404 Goal=   None    Shift=    0.000
 RMSDP=1.74D-05 MaxDP=7.39D-04 DE=-4.49D-09 OVMax= 1.92D-03

 Cycle  20  Pass 1  IDiag  1:
 E= -435.116590360201     Delta-E=       -0.000000069069 Rises=F Damp=F
 DIIS: error= 7.51D-06 at cycle  20 NSaved=   3.
 NSaved= 3 IEnMin= 3 EnMin= -435.116590360201     IErMin= 3 ErrMin= 7.51D-06
 ErrMax= 7.51D-06  0.00D+00 EMaxC= 1.00D-01 BMatC= 7.19D-10 BMatP= 7.28D-10
 IDIUse=1 WtCom= 1.00D+00 WtEn= 0.00D+00
 Coeff-Com: -0.364D+01 0.191D+01 0.273D+01
 Coeff:     -0.364D+01 0.191D+01 0.273D+01
 Gap=     0.456 Goal=   None    Shift=    0.000
 Gap=     0.404 Goal=   None    Shift=    0.000
 RMSDP=3.45D-05 MaxDP=1.46D-03 DE=-6.91D-08 OVMax= 3.80D-03

 Cycle  21  Pass 1  IDiag  1:
 E= -435.116590496542     Delta-E=       -0.000000136341 Rises=F Damp=F
 DIIS: error= 7.47D-06 at cycle  21 NSaved=   4.
 NSaved= 4 IEnMin= 4 EnMin= -435.116590496542     IErMin= 4 ErrMin= 7.47D-06
 ErrMax= 7.47D-06  0.00D+00 EMaxC= 1.00D-01 BMatC= 7.62D-10 BMatP= 7.19D-10
 IDIUse=1 WtCom= 1.00D+00 WtEn= 0.00D+00
 Coeff-Com: -0.301D+01-0.337D+00 0.384D+01 0.506D+00
 Coeff:     -0.301D+01-0.337D+00 0.384D+01 0.506D+00
 Gap=     0.456 Goal=   None    Shift=    0.000
 Gap=     0.404 Goal=   None    Shift=    0.000
 RMSDP=4.49D-05 MaxDP=1.89D-03 DE=-1.36D-07 OVMax= 4.93D-03

 Cycle  22  Pass 1  IDiag  1:
 E= -435.116590672574     Delta-E=       -0.000000176031 Rises=F Damp=F
 DIIS: error= 7.42D-06 at cycle  22 NSaved=   5.
 NSaved= 5 IEnMin= 5 EnMin= -435.116590672574     IErMin= 5 ErrMin= 7.42D-06
 ErrMax= 7.42D-06  0.00D+00 EMaxC= 1.00D-01 BMatC= 1.40D-09 BMatP= 7.19D-10
 IDIUse=1 WtCom= 1.00D+00 WtEn= 0.00D+00
 Coeff-Com: -0.527D+00-0.249D+01 0.296D+01 0.124D+01-0.194D+00
 Coeff:     -0.527D+00-0.249D+01 0.296D+01 0.124D+01-0.194D+00
 Gap=     0.456 Goal=   None    Shift=    0.000
 Gap=     0.404 Goal=   None    Shift=    0.000
 RMSDP=1.46D-06 MaxDP=6.14D-05 DE=-1.76D-07 OVMax= 1.60D-04

 Cycle  23  Pass 1  IDiag  1:
 E= -435.116590678253     Delta-E=       -0.000000005679 Rises=F Damp=F
 DIIS: error= 7.42D-06 at cycle  23 NSaved=   6.
 NSaved= 6 IEnMin= 6 EnMin= -435.116590678253     IErMin= 6 ErrMin= 7.42D-06
 ErrMax= 7.42D-06  0.00D+00 EMaxC= 1.00D-01 BMatC= 1.46D-09 BMatP= 7.19D-10
 IDIUse=1 WtCom= 1.00D+00 WtEn= 0.00D+00
 Large coefficients: NSaved=  6 BigCof=   24.03 CofMax=   10.00 Det=-9.43D-15
 Inversion failed.  Reducing to  5 matrices.
 Large coefficients: NSaved=  5 BigCof=   13.04 CofMax=   10.00 Det=-2.60D-14
 Inversion failed.  Reducing to  4 matrices.
 Coeff-Com: -0.159D+01 0.380D+01-0.706D+01 0.585D+01
 Coeff:     -0.159D+01 0.380D+01-0.706D+01 0.585D+01
 Gap=     0.456 Goal=   None    Shift=    0.000
 Gap=     0.404 Goal=   None    Shift=    0.000
 RMSDP=3.70D-05 MaxDP=1.56D-03 DE=-5.68D-09 OVMax= 4.06D-03

 Cycle  24  Pass 1  IDiag  1:
 E= -435.116590533419     Delta-E=        0.000000144834 Rises=F Damp=F
 DIIS: error= 7.46D-06 at cycle  24 NSaved=   5.
 NSaved= 5 IEnMin= 4 EnMin= -435.116590678253     IErMin= 4 ErrMin= 7.42D-06
 ErrMax= 7.46D-06  0.00D+00 EMaxC= 1.00D-01 BMatC= 8.94D-10 BMatP= 7.19D-10
 IDIUse=1 WtCom= 1.00D+00 WtEn= 0.00D+00
 Large coefficients: NSaved=  5 BigCof=   14.72 CofMax=   10.00 Det=-1.10D-14
 Inversion failed.  Reducing to  4 matrices.
 Coeff-Com:  0.311D+01-0.756D+01 0.734D+01-0.189D+01
 Coeff:      0.311D+01-0.756D+01 0.734D+01-0.189D+01
 Gap=     0.456 Goal=   None    Shift=    0.000
 Gap=     0.404 Goal=   None    Shift=    0.000
 RMSDP=2.62D-05 MaxDP=1.11D-03 DE= 1.45D-07 OVMax= 2.87D-03

 Cycle  25  Pass 1  IDiag  1:
 E= -435.116590430401     Delta-E=        0.000000103018 Rises=F Damp=F
 DIIS: error= 7.49D-06 at cycle  25 NSaved=   5.
 NSaved= 5 IEnMin= 3 EnMin= -435.116590678253     IErMin= 3 ErrMin= 7.42D-06
 ErrMax= 7.49D-06  0.00D+00 EMaxC= 1.00D-01 BMatC= 7.11D-10 BMatP= 7.62D-10
 IDIUse=1 WtCom= 1.00D+00 WtEn= 0.00D+00
 Coeff-Com: -0.101D+01-0.531D+01 0.672D+01-0.270D+01 0.329D+01
 Coeff:     -0.101D+01-0.531D+01 0.672D+01-0.270D+01 0.329D+01
 Gap=     0.456 Goal=   None    Shift=    0.000
 Gap=     0.404 Goal=   None    Shift=    0.000
 RMSDP=9.66D-06 MaxDP=4.04D-04 DE= 1.03D-07 OVMax= 1.06D-03

 Cycle  26  Pass 1  IDiag  1:
 E= -435.116590468472     Delta-E=       -0.000000038071 Rises=F Damp=F
 DIIS: error= 7.48D-06 at cycle  26 NSaved=   6.
 NSaved= 6 IEnMin= 3 EnMin= -435.116590678253     IErMin= 3 ErrMin= 7.42D-06
 ErrMax= 7.48D-06  0.00D+00 EMaxC= 1.00D-01 BMatC= 9.78D-10 BMatP= 7.11D-10
 IDIUse=1 WtCom= 1.00D+00 WtEn= 0.00D+00
 Large coefficients: NSaved=  6 BigCof=   55.36 CofMax=   10.00 Det=-9.41D-15
 Inversion failed.  Reducing to  5 matrices.
 Large coefficients: NSaved=  5 BigCof=   24.83 CofMax=   10.00 Det=-3.26D-14
 Inversion failed.  Reducing to  4 matrices.
 Large coefficients: NSaved=  4 BigCof=   16.14 CofMax=   10.00 Det=-7.15D-14
 Inversion failed.  Reducing to  3 matrices.
 Coeff-Com:  0.203D+01-0.458D+01 0.354D+01
 Coeff:      0.203D+01-0.458D+01 0.354D+01
 Gap=     0.456 Goal=   None    Shift=    0.000
 Gap=     0.404 Goal=   None    Shift=    0.000
 RMSDP=1.53D-04 MaxDP=6.42D-03 DE=-3.81D-08 OVMax= 1.68D-02

 Cycle  27  Pass 1  IDiag  1:
 E= -435.116591064162     Delta-E=       -0.000000595690 Rises=F Damp=F
 DIIS: error= 1.11D-05 at cycle  27 NSaved=   4.
 NSaved= 4 IEnMin= 4 EnMin= -435.116591064162     IErMin= 1 ErrMin= 7.42D-06
 ErrMax= 1.11D-05  0.00D+00 EMaxC= 1.00D-01 BMatC= 5.44D-09 BMatP= 7.11D-10
 IDIUse=1 WtCom= 1.00D+00 WtEn= 0.00D+00
 Coeff-Com: -0.970D+01 0.919D+00 0.476D+01 0.503D+01
 Coeff:     -0.970D+01 0.919D+00 0.476D+01 0.503D+01
 Gap=     0.456 Goal=   None    Shift=    0.000
 Gap=     0.404 Goal=   None    Shift=    0.000
 RMSDP=8.91D-05 MaxDP=3.60D-03 DE=-5.96D-07 OVMax= 9.80D-03

 Cycle  28  Pass 1  IDiag  1:
 E= -435.116591403040     Delta-E=       -0.000000338878 Rises=F Damp=F
 DIIS: error= 1.98D-05 at cycle  28 NSaved=   5.
 NSaved= 5 IEnMin= 5 EnMin= -435.116591403040     IErMin= 1 ErrMin= 7.42D-06
 ErrMax= 1.98D-05  0.00D+00 EMaxC= 1.00D-01 BMatC= 1.53D-08 BMatP= 7.11D-10
 IDIUse=1 WtCom= 1.00D+00 WtEn= 0.00D+00
 Large coefficients: NSaved=  5 BigCof=   12.76 CofMax=   10.00 Det=-4.43D-13
 Inversion failed.  Reducing to  4 matrices.
 Coeff-Com: -0.819D+01 0.362D+00 0.684D+01 0.199D+01
 Coeff:     -0.819D+01 0.362D+00 0.684D+01 0.199D+01
 Gap=     0.456 Goal=   None    Shift=    0.000
 Gap=     0.406 Goal=   None    Shift=    0.000
 RMSDP=8.34D-04 MaxDP=3.28D-02 DE=-3.39D-07 OVMax= 9.16D-02

 Cycle  29  Pass 1  IDiag  1:
 E= -435.116591462854     Delta-E=       -0.000000059814 Rises=F Damp=F
 DIIS: error= 6.24D-04 at cycle  29 NSaved=   5.
 NSaved= 5 IEnMin= 5 EnMin= -435.116591462854     IErMin= 1 ErrMin= 7.42D-06
 ErrMax= 6.24D-04  0.00D+00 EMaxC= 1.00D-01 BMatC= 1.26D-05 BMatP= 9.78D-10
 IDIUse=1 WtCom= 1.00D+00 WtEn= 0.00D+00
 Large coefficients: NSaved=  5 BigCof=   30.59 CofMax=   10.00 Det=-6.45D-14
 Inversion failed.  Reducing to  4 matrices.
 Coeff-Com: -0.648D+01 0.558D+01 0.189D+01 0.653D-02
 Coeff:     -0.648D+01 0.558D+01 0.189D+01 0.653D-02
 Gap=     0.455 Goal=   None    Shift=    0.000
 Gap=     0.404 Goal=   None    Shift=    0.000
 RMSDP=1.13D-04 MaxDP=4.25D-03 DE=-5.98D-08 OVMax= 1.24D-02

 Cycle  30  Pass 1  IDiag  1:
 E= -435.116592277686     Delta-E=       -0.000000814832 Rises=F Damp=F
 DIIS: error= 4.73D-04 at cycle  30 NSaved=   5.
 NSaved= 5 IEnMin= 5 EnMin= -435.116592277686     IErMin= 1 ErrMin= 7.42D-06
 ErrMax= 4.73D-04  0.00D+00 EMaxC= 1.00D-01 BMatC= 7.41D-06 BMatP= 1.46D-09
 IDIUse=1 WtCom= 1.00D+00 WtEn= 0.00D+00
 Coeff-Com: -0.512D+01 0.233D+01 0.343D+01-0.740D+00 0.111D+01
 Coeff:     -0.512D+01 0.233D+01 0.343D+01-0.740D+00 0.111D+01
 Gap=     0.455 Goal=   None    Shift=    0.000
 Gap=     0.404 Goal=   None    Shift=    0.000
 RMSDP=2.05D-04 MaxDP=7.50D-03 DE=-8.15D-07 OVMax= 2.25D-02

 Cycle  31  Pass 1  IDiag  1:
 E= -435.116591427157     Delta-E=        0.000000850529 Rises=F Damp=F
 DIIS: error= 6.65D-04 at cycle  31 NSaved=   6.
 NSaved= 6 IEnMin= 5 EnMin= -435.116592277686     IErMin= 1 ErrMin= 7.42D-06
 ErrMax= 6.65D-04  0.00D+00 EMaxC= 1.00D-01 BMatC= 1.40D-05 BMatP= 1.46D-09
 IDIUse=1 WtCom= 1.00D+00 WtEn= 0.00D+00
 Coeff-Com: -0.489D+01 0.135D+01 0.373D+01-0.416D+01 0.331D+01 0.166D+01
 Coeff:     -0.489D+01 0.135D+01 0.373D+01-0.416D+01 0.331D+01 0.166D+01
 Gap=     0.454 Goal=   None    Shift=    0.000
 Gap=     0.404 Goal=   None    Shift=    0.000
 RMSDP=3.07D-04 MaxDP=1.09D-02 DE= 8.51D-07 OVMax= 3.37D-02

 Cycle  32  Pass 1  IDiag  1:
 E= -435.116588300475     Delta-E=        0.000003126682 Rises=F Damp=F
 DIIS: error= 1.03D-03 at cycle  32 NSaved=   7.
 NSaved= 7 IEnMin= 5 EnMin= -435.116592277686     IErMin= 1 ErrMin= 7.42D-06
 ErrMax= 1.03D-03  0.00D+00 EMaxC= 1.00D-01 BMatC= 3.17D-05 BMatP= 1.46D-09
 IDIUse=1 WtCom= 1.00D+00 WtEn= 0.00D+00
 Coeff-Com: -0.574D+01 0.159D+01 0.403D+01-0.530D+01 0.537D+01 0.632D+00
 Coeff-Com:  0.420D+00
 Coeff:     -0.574D+01 0.159D+01 0.403D+01-0.530D+01 0.537D+01 0.632D+00
 Coeff:      0.420D+00
 Gap=     0.453 Goal=   None    Shift=    0.000
 Gap=     0.404 Goal=   None    Shift=    0.000
 RMSDP=2.12D-04 MaxDP=7.79D-03 DE= 3.13D-06 OVMax= 2.33D-02

 Cycle  33  Pass 1  IDiag  1:
 E= -435.116581676302     Delta-E=        0.000006624173 Rises=F Damp=F
 DIIS: error= 1.49D-03 at cycle  33 NSaved=   8.
 NSaved= 8 IEnMin= 5 EnMin= -435.116592277686     IErMin= 1 ErrMin= 7.42D-06
 ErrMax= 1.49D-03  0.00D+00 EMaxC= 1.00D-01 BMatC= 6.32D-05 BMatP= 1.46D-09
 IDIUse=1 WtCom= 1.00D+00 WtEn= 0.00D+00
 Large coefficients: NSaved=  8 BigCof=   13.82 CofMax=   10.00 Det=-2.69D-13
 Inversion failed.  Reducing to  7 matrices.
 Coeff-Com: -0.385D+01 0.365D+01-0.530D+01 0.522D+01 0.109D+01 0.125D+00
 Coeff-Com:  0.664D-01
 Coeff:     -0.385D+01 0.365D+01-0.530D+01 0.522D+01 0.109D+01 0.125D+00
 Coeff:      0.664D-01
 Gap=     0.456 Goal=   None    Shift=    0.000
 Gap=     0.404 Goal=   None    Shift=    0.000
 RMSDP=5.12D-04 MaxDP=1.83D-02 DE= 6.62D-06 OVMax= 5.62D-02

 Cycle  34  Pass 1  IDiag  1:
 E= -435.116593351522     Delta-E=       -0.000011675220 Rises=F Damp=F
 DIIS: error= 4.25D-04 at cycle  34 NSaved=   8.
 NSaved= 8 IEnMin= 8 EnMin= -435.116593351522     IErMin= 1 ErrMin= 1.11D-05
 ErrMax= 4.25D-04  0.00D+00 EMaxC= 1.00D-01 BMatC= 5.71D-06 BMatP= 5.44D-09
 IDIUse=1 WtCom= 1.00D+00 WtEn= 0.00D+00
 Coeff-Com: -0.408D+01 0.361D+01 0.167D+00 0.131D+01-0.121D+01-0.206D+01
 Coeff-Com:  0.880D+00 0.238D+01
 Coeff:     -0.408D+01 0.361D+01 0.167D+00 0.131D+01-0.121D+01-0.206D+01
 Coeff:      0.880D+00 0.238D+01
 Gap=     0.455 Goal=   None    Shift=    0.000
 Gap=     0.404 Goal=   None    Shift=    0.000
 RMSDP=3.31D-04 MaxDP=1.18D-02 DE=-1.17D-05 OVMax= 3.64D-02

 Cycle  35  Pass 1  IDiag  1:
 E= -435.116591400679     Delta-E=        0.000001950843 Rises=F Damp=F
 DIIS: error= 7.95D-04 at cycle  35 NSaved=   9.
 NSaved= 9 IEnMin= 8 EnMin= -435.116593351522     IErMin= 1 ErrMin= 1.11D-05
 ErrMax= 7.95D-04  0.00D+00 EMaxC= 1.00D-01 BMatC= 1.86D-05 BMatP= 5.44D-09
 IDIUse=1 WtCom= 1.00D+00 WtEn= 0.00D+00
 Coeff-Com: -0.505D+01 0.462D+01 0.169D+01 0.328D+00-0.643D+00-0.375D+01
 Coeff-Com:  0.110D+01 0.146D+01 0.124D+01
 Coeff:     -0.505D+01 0.462D+01 0.169D+01 0.328D+00-0.643D+00-0.375D+01
 Coeff:      0.110D+01 0.146D+01 0.124D+01
 Gap=     0.454 Goal=   None    Shift=    0.000
 Gap=     0.404 Goal=   None    Shift=    0.000
 RMSDP=1.01D-04 MaxDP=3.73D-03 DE= 1.95D-06 OVMax= 1.11D-02

 Cycle  36  Pass 1  IDiag  1:
 E= -435.116590128813     Delta-E=        0.000001271866 Rises=F Damp=F
 DIIS: error= 9.38D-04 at cycle  36 NSaved=  10.
 NSaved=10 IEnMin= 8 EnMin= -435.116593351522     IErMin= 1 ErrMin= 1.11D-05
 ErrMax= 9.38D-04  0.00D+00 EMaxC= 1.00D-01 BMatC= 2.54D-05 BMatP= 5.44D-09
 IDIUse=1 WtCom= 1.00D+00 WtEn= 0.00D+00
 Coeff-Com: -0.452D+01 0.407D+01 0.241D+01-0.776D+00-0.106D+01-0.288D+01
 Coeff-Com:  0.760D+00 0.296D+01-0.174D+01 0.177D+01
 Coeff:     -0.452D+01 0.407D+01 0.241D+01-0.776D+00-0.106D+01-0.288D+01
 Coeff:      0.760D+00 0.296D+01-0.174D+01 0.177D+01
 Gap=     0.454 Goal=   None    Shift=    0.000
 Gap=     0.404 Goal=   None    Shift=    0.000
 RMSDP=1.33D-05 MaxDP=5.12D-04 DE= 1.27D-06 OVMax= 1.46D-03

 Cycle  37  Pass 1  IDiag  1:
 E= -435.116590232177     Delta-E=       -0.000000103364 Rises=F Damp=F
 DIIS: error= 9.34D-04 at cycle  37 NSaved=  11.
 NSaved=11 IEnMin= 8 EnMin= -435.116593351522     IErMin= 1 ErrMin= 1.11D-05
 ErrMax= 9.34D-04  0.00D+00 EMaxC= 1.00D-01 BMatC= 2.51D-05 BMatP= 5.44D-09
 IDIUse=1 WtCom= 1.00D+00 WtEn= 0.00D+00
 Coeff-Com: -0.294D+01 0.242D+01 0.503D+01-0.416D+01-0.236D+01-0.982D+00
 Coeff-Com:  0.176D+00 0.646D+01-0.692D+01-0.253D+01 0.680D+01
 Coeff:     -0.294D+01 0.242D+01 0.503D+01-0.416D+01-0.236D+01-0.982D+00
 Coeff:      0.176D+00 0.646D+01-0.692D+01-0.253D+01 0.680D+01
 Gap=     0.454 Goal=   None    Shift=    0.000
 Gap=     0.404 Goal=   None    Shift=    0.000
 RMSDP=1.15D-04 MaxDP=4.42D-03 DE=-1.03D-07 OVMax= 1.26D-02

 Cycle  38  Pass 1  IDiag  1:
 E= -435.116590220312     Delta-E=        0.000000011865 Rises=F Damp=F
 DIIS: error= 9.71D-04 at cycle  38 NSaved=  12.
 NSaved=12 IEnMin= 8 EnMin= -435.116593351522     IErMin= 1 ErrMin= 1.11D-05
 ErrMax= 9.71D-04  0.00D+00 EMaxC= 1.00D-01 BMatC= 2.65D-05 BMatP= 5.44D-09
 IDIUse=1 WtCom= 1.00D+00 WtEn= 0.00D+00
 Large coefficients: NSaved= 12 BigCof=   26.40 CofMax=   10.00 Det=-6.68D-14
 Inversion failed.  Reducing to 11 matrices.
 Coeff-Com: -0.202D+01 0.174D+01 0.698D+01-0.623D+01-0.259D+01-0.569D+00
 Coeff-Com:  0.580D+01-0.305D+01-0.753D+01 0.646D+01 0.200D+01
 Coeff:     -0.202D+01 0.174D+01 0.698D+01-0.623D+01-0.259D+01-0.569D+00
 Coeff:      0.580D+01-0.305D+01-0.753D+01 0.646D+01 0.200D+01
 Gap=     0.455 Goal=   None    Shift=    0.000
 Gap=     0.404 Goal=   None    Shift=    0.000
 RMSDP=6.62D-05 MaxDP=2.69D-03 DE= 1.19D-08 OVMax= 7.26D-03

 Cycle  39  Pass 1  IDiag  1:
 E= -435.116592543233     Delta-E=       -0.000002322922 Rises=F Damp=F
 DIIS: error= 7.87D-04 at cycle  39 NSaved=  12.
 NSaved=12 IEnMin= 7 EnMin= -435.116593351522     IErMin= 1 ErrMin= 1.11D-05
 ErrMax= 7.87D-04  0.00D+00 EMaxC= 1.00D-01 BMatC= 1.71D-05 BMatP= 5.44D-09
 IDIUse=1 WtCom= 1.00D+00 WtEn= 0.00D+00
 Large coefficients: NSaved= 12 BigCof=  107.50 CofMax=   10.00 Det=-5.85D-14
 Inversion failed.  Reducing to 11 matrices.
 Large coefficients: NSaved= 11 BigCof=   54.99 CofMax=   10.00 Det=-9.91D-14
 Inversion failed.  Reducing to 10 matrices.
 Coeff-Com: -0.155D+01 0.124D+01 0.824D+01-0.774D+01-0.282D+01 0.616D+01
 Coeff-Com: -0.560D+01 0.263D+01-0.288D+01 0.331D+01
 Coeff:     -0.155D+01 0.124D+01 0.824D+01-0.774D+01-0.282D+01 0.616D+01
 Coeff:     -0.560D+01 0.263D+01-0.288D+01 0.331D+01
 Gap=     0.454 Goal=   None    Shift=    0.000
 Gap=     0.404 Goal=   None    Shift=    0.000
 RMSDP=3.82D-04 MaxDP=1.53D-02 DE=-2.32D-06 OVMax= 4.19D-02

 Cycle  40  Pass 1  IDiag  1:
 E= -435.116589370022     Delta-E=        0.000003173211 Rises=F Damp=F
 DIIS: error= 1.16D-03 at cycle  40 NSaved=  11.
 NSaved=11 IEnMin= 6 EnMin= -435.116593351522     IErMin= 1 ErrMin= 1.11D-05
 ErrMax= 1.16D-03  0.00D+00 EMaxC= 1.00D-01 BMatC= 3.51D-05 BMatP= 5.44D-09
 IDIUse=1 WtCom= 1.00D+00 WtEn= 0.00D+00
 Large coefficients: NSaved= 11 BigCof=   10.32 CofMax=   10.00 Det=-2.24D-13
 Inversion failed.  Reducing to 10 matrices.
 Coeff-Com: -0.130D+01 0.860D+00 0.544D+01-0.474D+01-0.250D+01 0.530D+01
 Coeff-Com: -0.489D+01 0.566D+00 0.262D+01-0.354D+00
 Coeff:     -0.130D+01 0.860D+00 0.544D+01-0.474D+01-0.250D+01 0.530D+01
 Coeff:     -0.489D+01 0.566D+00 0.262D+01-0.354D+00
 Gap=     0.454 Goal=   None    Shift=    0.000
 Gap=     0.404 Goal=   None    Shift=    0.000
 RMSDP=1.14D-04 MaxDP=4.64D-03 DE= 3.17D-06 OVMax= 1.26D-02

 Cycle  41  Pass 1  IDiag  1:
 E= -435.116591071597     Delta-E=       -0.000001701575 Rises=F Damp=F
 DIIS: error= 1.00D-03 at cycle  41 NSaved=  11.
 NSaved=11 IEnMin= 6 EnMin= -435.116593351522     IErMin= 1 ErrMin= 1.11D-05
 ErrMax= 1.00D-03  0.00D+00 EMaxC= 1.00D-01 BMatC= 2.65D-05 BMatP= 5.44D-09
 IDIUse=1 WtCom= 1.00D+00 WtEn= 0.00D+00
 Coeff-Com: -0.154D+01 0.126D+01 0.949D+01-0.911D+01-0.312D+01 0.720D+01
 Coeff-Com: -0.421D+01-0.635D+00 0.909D-01-0.164D+01 0.322D+01
 Coeff:     -0.154D+01 0.126D+01 0.949D+01-0.911D+01-0.312D+01 0.720D+01
 Coeff:     -0.421D+01-0.635D+00 0.909D-01-0.164D+01 0.322D+01
 Gap=     0.454 Goal=   None    Shift=    0.000
 Gap=     0.404 Goal=   None    Shift=    0.000
 RMSDP=7.92D-05 MaxDP=3.22D-03 DE=-1.70D-06 OVMax= 8.70D-03

 Cycle  42  Pass 1  IDiag  1:
 E= -435.116590230342     Delta-E=        0.000000841255 Rises=F Damp=F
 DIIS: error= 1.09D-03 at cycle  42 NSaved=  12.
 NSaved=12 IEnMin= 6 EnMin= -435.116593351522     IErMin= 1 ErrMin= 1.11D-05
 ErrMax= 1.09D-03  0.00D+00 EMaxC= 1.00D-01 BMatC= 3.10D-05 BMatP= 5.44D-09
 IDIUse=1 WtCom= 1.00D+00 WtEn= 0.00D+00
 Large coefficients: NSaved= 12 BigCof=   18.79 CofMax=   10.00 Det=-1.08D-13
 Inversion failed.  Reducing to 11 matrices.
 Coeff-Com: -0.147D+01 0.122D+01 0.935D+01-0.903D+01-0.300D+01 0.691D+01
 Coeff-Com: -0.376D+01-0.114D+01 0.878D+00 0.276D+01-0.171D+01
 Coeff:     -0.147D+01 0.122D+01 0.935D+01-0.903D+01-0.300D+01 0.691D+01
 Coeff:     -0.376D+01-0.114D+01 0.878D+00 0.276D+01-0.171D+01
 Gap=     0.454 Goal=   None    Shift=    0.000
 Gap=     0.404 Goal=   None    Shift=    0.000
 RMSDP=3.29D-05 MaxDP=1.34D-03 DE= 8.41D-07 OVMax= 3.61D-03

 Cycle  43  Pass 1  IDiag  1:
 E= -435.116590643706     Delta-E=       -0.000000413364 Rises=F Damp=F
 DIIS: error= 1.05D-03 at cycle  43 NSaved=  12.
 NSaved=12 IEnMin= 6 EnMin= -435.116593351522     IErMin= 1 ErrMin= 1.11D-05
 ErrMax= 1.05D-03  0.00D+00 EMaxC= 1.00D-01 BMatC= 2.89D-05 BMatP= 5.44D-09
 IDIUse=1 WtCom= 1.00D+00 WtEn= 0.00D+00
 Large coefficients: NSaved= 12 BigCof=   23.62 CofMax=   10.00 Det=-4.56D-14
 Inversion failed.  Reducing to 11 matrices.
 Large coefficients: NSaved= 11 BigCof=   15.43 CofMax=   10.00 Det=-5.84D-14
 Inversion failed.  Reducing to 10 matrices.
 Large coefficients: NSaved= 10 BigCof=   17.34 CofMax=   10.00 Det=-5.97D-14
 Inversion failed.  Reducing to  9 matrices.
 Coeff-Com: -0.238D+00 0.687D+01-0.622D+01-0.291D+01 0.547D+01-0.456D+01
 Coeff-Com:  0.306D+01-0.594D+00 0.122D+00
 Coeff:     -0.238D+00 0.687D+01-0.622D+01-0.291D+01 0.547D+01-0.456D+01
 Coeff:      0.306D+01-0.594D+00 0.122D+00
 Gap=     0.455 Goal=   None    Shift=    0.000
 Gap=     0.404 Goal=   None    Shift=    0.000
 RMSDP=1.36D-04 MaxDP=5.30D-03 DE=-4.13D-07 OVMax= 1.49D-02

 Cycle  44  Pass 1  IDiag  1:
 E= -435.116594607780     Delta-E=       -0.000003964074 Rises=F Damp=F
 DIIS: error= 6.15D-04 at cycle  44 NSaved=  10.
 NSaved=10 IEnMin=10 EnMin= -435.116594607780     IErMin= 1 ErrMin= 1.98D-05
 ErrMax= 6.15D-04  0.00D+00 EMaxC= 1.00D-01 BMatC= 1.01D-05 BMatP= 1.53D-08
 IDIUse=1 WtCom= 1.00D+00 WtEn= 0.00D+00
 Large coefficients: NSaved= 10 BigCof=   35.58 CofMax=   10.00 Det=-5.58D-14
 Inversion failed.  Reducing to  9 matrices.
 Large coefficients: NSaved=  9 BigCof=   19.83 CofMax=   10.00 Det=-2.64D-13
 Inversion failed.  Reducing to  8 matrices.
 Large coefficients: NSaved=  8 BigCof=   17.03 CofMax=   10.00 Det=-3.34D-13
 Inversion failed.  Reducing to  7 matrices.
 Large coefficients: NSaved=  7 BigCof=   11.32 CofMax=   10.00 Det=-5.91D-13
 Inversion failed.  Reducing to  6 matrices.
 Large coefficients: NSaved=  6 BigCof=   10.51 CofMax=   10.00 Det=-7.16D-13
 Inversion failed.  Reducing to  5 matrices.
 Coeff-Com: -0.421D+00 0.542D+00-0.840D+00-0.984D+00 0.270D+01
 Coeff:     -0.421D+00 0.542D+00-0.840D+00-0.984D+00 0.270D+01
 Gap=     0.456 Goal=   None    Shift=    0.000
 Gap=     0.404 Goal=   None    Shift=    0.000
 RMSDP=1.59D-05 MaxDP=8.53D-04 DE=-3.96D-06 OVMax= 1.12D-03

 Cycle  45  Pass 1  IDiag  1:
 E= -435.116596896382     Delta-E=       -0.000002288602 Rises=F Damp=F
 DIIS: error= 9.46D-05 at cycle  45 NSaved=   6.
 NSaved= 6 IEnMin= 6 EnMin= -435.116596896382     IErMin= 6 ErrMin= 9.46D-05
 ErrMax= 9.46D-05  0.00D+00 EMaxC= 1.00D-01 BMatC= 2.39D-07 BMatP= 5.71D-06
 IDIUse=1 WtCom= 1.00D+00 WtEn= 0.00D+00
 Coeff-Com:  0.681D+00-0.148D+01 0.987D+00-0.308D+00-0.480D+00 0.160D+01
 Coeff:      0.681D+00-0.148D+01 0.987D+00-0.308D+00-0.480D+00 0.160D+01
 Gap=     0.456 Goal=   None    Shift=    0.000
 Gap=     0.404 Goal=   None    Shift=    0.000
 RMSDP=2.86D-04 MaxDP=1.17D-02 DE=-2.29D-06 OVMax= 3.15D-02

 Cycle  46  Pass 1  IDiag  1:
 E= -435.116597281602     Delta-E=       -0.000000385220 Rises=F Damp=F
 DIIS: error= 2.42D-04 at cycle  46 NSaved=   7.
 NSaved= 7 IEnMin= 7 EnMin= -435.116597281602     IErMin= 6 ErrMin= 9.46D-05
 ErrMax= 2.42D-04  0.00D+00 EMaxC= 1.00D-01 BMatC= 1.50D-06 BMatP= 2.39D-07
 IDIUse=1 WtCom= 1.00D+00 WtEn= 0.00D+00
 Coeff-Com:  0.428D+00-0.116D+01 0.188D+01-0.335D+00-0.213D+01 0.621D+00
 Coeff-Com:  0.169D+01
 Coeff:      0.428D+00-0.116D+01 0.188D+01-0.335D+00-0.213D+01 0.621D+00
 Coeff:      0.169D+01
 Gap=     0.455 Goal=   None    Shift=    0.000
 Gap=     0.404 Goal=   None    Shift=    0.000
 RMSDP=3.18D-04 MaxDP=1.35D-02 DE=-3.85D-07 OVMax= 3.49D-02

 Cycle  47  Pass 1  IDiag  1:
 E= -435.116597483999     Delta-E=       -0.000000202396 Rises=F Damp=F
 DIIS: error= 3.79D-04 at cycle  47 NSaved=   8.
 NSaved= 8 IEnMin= 8 EnMin= -435.116597483999     IErMin= 6 ErrMin= 9.46D-05
 ErrMax= 3.79D-04  0.00D+00 EMaxC= 1.00D-01 BMatC= 3.49D-06 BMatP= 2.39D-07
 IDIUse=1 WtCom= 1.00D+00 WtEn= 0.00D+00
 Coeff-Com: -0.222D+00-0.689D+00 0.358D+01-0.165D+01-0.233D+01 0.932D-01
 Coeff-Com:  0.761D+00 0.146D+01
 Coeff:     -0.222D+00-0.689D+00 0.358D+01-0.165D+01-0.233D+01 0.932D-01
 Coeff:      0.761D+00 0.146D+01
 Gap=     0.455 Goal=   None    Shift=    0.000
 Gap=     0.404 Goal=   None    Shift=    0.000
 RMSDP=3.97D-04 MaxDP=1.74D-02 DE=-2.02D-07 OVMax= 4.37D-02

 Cycle  48  Pass 1  IDiag  1:
 E= -435.116595486938     Delta-E=        0.000001997061 Rises=F Damp=F
 DIIS: error= 8.13D-04 at cycle  48 NSaved=   9.
 NSaved= 9 IEnMin= 8 EnMin= -435.116597483999     IErMin= 6 ErrMin= 9.46D-05
 ErrMax= 8.13D-04  0.00D+00 EMaxC= 1.00D-01 BMatC= 1.52D-05 BMatP= 2.39D-07
 IDIUse=1 WtCom= 1.00D+00 WtEn= 0.00D+00
 Coeff-Com:  0.141D+00-0.177D+01 0.498D+01-0.204D+01-0.309D+01 0.713D+00
 Coeff-Com:  0.124D+01 0.521D+00 0.295D+00
 Coeff:      0.141D+00-0.177D+01 0.498D+01-0.204D+01-0.309D+01 0.713D+00
 Coeff:      0.124D+01 0.521D+00 0.295D+00
 Gap=     0.454 Goal=   None    Shift=    0.000
 Gap=     0.404 Goal=   None    Shift=    0.000
 RMSDP=5.36D-05 MaxDP=2.29D-03 DE= 2.00D-06 OVMax= 5.83D-03

 Cycle  49  Pass 1  IDiag  1:
 E= -435.116592153584     Delta-E=        0.000003333353 Rises=F Damp=F
 DIIS: error= 1.15D-03 at cycle  49 NSaved=  10.
 NSaved=10 IEnMin= 8 EnMin= -435.116597483999     IErMin= 6 ErrMin= 9.46D-05
 ErrMax= 1.15D-03  0.00D+00 EMaxC= 1.00D-01 BMatC= 3.01D-05 BMatP= 2.39D-07
 IDIUse=1 WtCom= 1.00D+00 WtEn= 0.00D+00
 Coeff-Com:  0.112D+01-0.286D+01 0.379D+01-0.332D+00-0.382D+01 0.186D+01
 Coeff-Com:  0.181D+01-0.233D+01 0.406D+01-0.229D+01
 Coeff:      0.112D+01-0.286D+01 0.379D+01-0.332D+00-0.382D+01 0.186D+01
 Coeff:      0.181D+01-0.233D+01 0.406D+01-0.229D+01
 Gap=     0.454 Goal=   None    Shift=    0.000
 Gap=     0.404 Goal=   None    Shift=    0.000
 RMSDP=1.43D-04 MaxDP=6.57D-03 DE= 3.33D-06 OVMax= 1.57D-02

 Cycle  50  Pass 1  IDiag  1:
 E= -435.116594123638     Delta-E=       -0.000001970054 Rises=F Damp=F
 DIIS: error= 9.98D-04 at cycle  50 NSaved=  11.
 NSaved=11 IEnMin= 8 EnMin= -435.116597483999     IErMin= 6 ErrMin= 9.46D-05
 ErrMax= 9.98D-04  0.00D+00 EMaxC= 1.00D-01 BMatC= 2.24D-05 BMatP= 2.39D-07
 IDIUse=1 WtCom= 1.00D+00 WtEn= 0.00D+00
 Coeff-Com: -0.928D+00-0.260D+01 0.991D+01-0.979D+00-0.843D+01 0.846D+00
 Coeff-Com:  0.322D+01 0.139D+01-0.372D+01-0.465D+01 0.695D+01
 Coeff:     -0.928D+00-0.260D+01 0.991D+01-0.979D+00-0.843D+01 0.846D+00
 Coeff:      0.322D+01 0.139D+01-0.372D+01-0.465D+01 0.695D+01
 Gap=     0.449 Goal=   None    Shift=    0.000
 Gap=     0.404 Goal=   None    Shift=    0.000
 RMSDP=1.11D-03 MaxDP=5.19D-02 DE=-1.97D-06 OVMax= 1.22D-01

 Cycle  51  Pass 1  IDiag  1:
 E= -435.116459120377     Delta-E=        0.000135003261 Rises=F Damp=F
 DIIS: error= 5.44D-03 at cycle  51 NSaved=  12.
 NSaved=12 IEnMin= 8 EnMin= -435.116597483999     IErMin= 6 ErrMin= 9.46D-05
 ErrMax= 5.44D-03  0.00D+00 EMaxC= 1.00D-01 BMatC= 6.18D-04 BMatP= 2.39D-07
 IDIUse=1 WtCom= 1.00D+00 WtEn= 0.00D+00
 Coeff-Com: -0.530D+00-0.310D+01 0.787D+01-0.654D+00-0.552D+01 0.640D+00
 Coeff-Com:  0.191D+01 0.585D+00 0.185D+01-0.669D+01 0.458D+01 0.573D-01
 Coeff:     -0.530D+00-0.310D+01 0.787D+01-0.654D+00-0.552D+01 0.640D+00
 Coeff:      0.191D+01 0.585D+00 0.185D+01-0.669D+01 0.458D+01 0.573D-01
 Gap=     0.446 Goal=   None    Shift=    0.000
 Gap=     0.404 Goal=   None    Shift=    0.000
 RMSDP=1.94D-04 MaxDP=9.29D-03 DE= 1.35D-04 OVMax= 2.10D-02

 Cycle  52  Pass 1  IDiag  1:
 E= -435.116395238858     Delta-E=        0.000063881519 Rises=F Damp=F
 DIIS: error= 6.58D-03 at cycle  52 NSaved=  13.
 NSaved=13 IEnMin= 8 EnMin= -435.116597483999     IErMin= 6 ErrMin= 9.46D-05
 ErrMax= 6.58D-03  0.00D+00 EMaxC= 1.00D-01 BMatC= 8.98D-04 BMatP= 2.39D-07
 IDIUse=1 WtCom= 1.00D+00 WtEn= 0.00D+00
 Coeff-Com: -0.501D+00-0.318D+01 0.776D+01-0.831D+00-0.498D+01 0.512D+00
 Coeff-Com:  0.165D+01 0.743D+00 0.262D+01-0.689D+01 0.399D+01 0.164D+00
 Coeff-Com: -0.645D-01
 Coeff:     -0.501D+00-0.318D+01 0.776D+01-0.831D+00-0.498D+01 0.512D+00
 Coeff:      0.165D+01 0.743D+00 0.262D+01-0.689D+01 0.399D+01 0.164D+00
 Coeff:     -0.645D-01
 Gap=     0.446 Goal=   None    Shift=    0.000
 Gap=     0.404 Goal=   None    Shift=    0.000
 RMSDP=2.95D-06 MaxDP=1.44D-04 DE= 6.39D-05 OVMax= 2.60D-04

 Cycle  53  Pass 1  IDiag  1:
 E= -435.116389929909     Delta-E=        0.000005308949 Rises=F Damp=F
 DIIS: error= 6.66D-03 at cycle  53 NSaved=  14.
 NSaved=14 IEnMin= 8 EnMin= -435.116597483999     IErMin= 6 ErrMin= 9.46D-05
 ErrMax= 6.66D-03  0.00D+00 EMaxC= 1.00D-01 BMatC= 9.22D-04 BMatP= 2.39D-07
 IDIUse=1 WtCom= 1.00D+00 WtEn= 0.00D+00
 Coeff-Com: -0.565D+00-0.318D+01 0.781D+01-0.929D+00-0.482D+01 0.388D+00
 Coeff-Com:  0.158D+01 0.106D+01 0.259D+01-0.671D+01 0.368D+01 0.179D+00
 Coeff-Com:  0.236D+00-0.300D+00
 Coeff:     -0.565D+00-0.318D+01 0.781D+01-0.929D+00-0.482D+01 0.388D+00
 Coeff:      0.158D+01 0.106D+01 0.259D+01-0.671D+01 0.368D+01 0.179D+00
 Coeff:      0.236D+00-0.300D+00
 Gap=     0.445 Goal=   None    Shift=    0.000
 Gap=     0.404 Goal=   None    Shift=    0.000
 RMSDP=5.70D-06 MaxDP=3.26D-04 DE= 5.31D-06 OVMax= 4.59D-04

 Cycle  54  Pass 1  IDiag  1:
 E= -435.116378026138     Delta-E=        0.000011903771 Rises=F Damp=F
 DIIS: error= 6.85D-03 at cycle  54 NSaved=  15.
 NSaved=15 IEnMin= 8 EnMin= -435.116597483999     IErMin= 6 ErrMin= 9.46D-05
 ErrMax= 6.85D-03  0.00D+00 EMaxC= 1.00D-01 BMatC= 9.74D-04 BMatP= 2.39D-07
 IDIUse=1 WtCom= 1.00D+00 WtEn= 0.00D+00
 Coeff-Com: -0.531D+00-0.319D+01 0.781D+01-0.855D+00-0.498D+01 0.476D+00
 Coeff-Com:  0.164D+01 0.879D+00 0.259D+01-0.677D+01 0.382D+01 0.223D+00
 Coeff-Com:  0.200D+01-0.321D+01 0.109D+01
 Coeff:     -0.531D+00-0.319D+01 0.781D+01-0.855D+00-0.498D+01 0.476D+00
 Coeff:      0.164D+01 0.879D+00 0.259D+01-0.677D+01 0.382D+01 0.223D+00
 Coeff:      0.200D+01-0.321D+01 0.109D+01
 Gap=     0.445 Goal=   None    Shift=    0.000
 Gap=     0.404 Goal=   None    Shift=    0.000
 RMSDP=2.04D-06 MaxDP=1.43D-04 DE= 1.19D-05 OVMax= 1.22D-04

 Cycle  55  Pass 1  IDiag  1:
 E= -435.116383356121     Delta-E=       -0.000005329983 Rises=F Damp=F
 DIIS: error= 6.77D-03 at cycle  55 NSaved=  16.
 NSaved=16 IEnMin= 8 EnMin= -435.116597483999     IErMin= 6 ErrMin= 9.46D-05
 ErrMax= 6.77D-03  0.00D+00 EMaxC= 1.00D-01 BMatC= 9.50D-04 BMatP= 2.39D-07
 IDIUse=1 WtCom= 1.00D+00 WtEn= 0.00D+00
 Large coefficients: NSaved= 16 BigCof=    0.00 CofMax=   10.00 Det=-2.08D-15
 Inversion failed.  Reducing to 15 matrices.
 Coeff-Com: -0.548D+00-0.322D+01 0.774D+01-0.103D+01-0.452D+01 0.312D+00
 Coeff-Com:  0.143D+01 0.115D+01 0.302D+01-0.680D+01 0.333D+01 0.235D+00
 Coeff-Com: -0.423D+00-0.997D+00 0.132D+01
 Coeff:     -0.548D+00-0.322D+01 0.774D+01-0.103D+01-0.452D+01 0.312D+00
 Coeff:      0.143D+01 0.115D+01 0.302D+01-0.680D+01 0.333D+01 0.235D+00
 Coeff:     -0.423D+00-0.997D+00 0.132D+01
 Gap=     0.445 Goal=   None    Shift=    0.000
 Gap=     0.404 Goal=   None    Shift=    0.000
 RMSDP=3.52D-06 MaxDP=2.41D-04 DE=-5.33D-06 OVMax= 2.18D-04

 Cycle  56  Pass 1  IDiag  1:
 E= -435.116374298391     Delta-E=        0.000009057731 Rises=F Damp=F
 DIIS: error= 6.90D-03 at cycle  56 NSaved=  16.
 NSaved=16 IEnMin= 8 EnMin= -435.116597483999     IErMin= 6 ErrMin= 9.46D-05
 ErrMax= 6.90D-03  0.00D+00 EMaxC= 1.00D-01 BMatC= 9.90D-04 BMatP= 2.39D-07
 IDIUse=1 WtCom= 1.00D+00 WtEn= 0.00D+00
 Large coefficients: NSaved= 16 BigCof=    0.00 CofMax=   10.00 Det=-4.88D-16
 Inversion failed.  Reducing to 15 matrices.
 Coeff-Com: -0.555D+00-0.320D+01 0.778D+01-0.967D+00-0.470D+01 0.361D+00
 Coeff-Com:  0.152D+01 0.108D+01 0.278D+01-0.676D+01 0.354D+01 0.200D+00
 Coeff-Com: -0.161D+00 0.365D+00-0.282D+00
 Coeff:     -0.555D+00-0.320D+01 0.778D+01-0.967D+00-0.470D+01 0.361D+00
 Coeff:      0.152D+01 0.108D+01 0.278D+01-0.676D+01 0.354D+01 0.200D+00
 Coeff:     -0.161D+00 0.365D+00-0.282D+00
 Gap=     0.445 Goal=   None    Shift=    0.000
 Gap=     0.404 Goal=   None    Shift=    0.000
 RMSDP=9.96D-07 MaxDP=7.12D-05 DE= 9.06D-06 OVMax= 5.61D-05

 Cycle  57  Pass 1  IDiag  1:
 E= -435.116376980523     Delta-E=       -0.000002682133 Rises=F Damp=F
 DIIS: error= 6.86D-03 at cycle  57 NSaved=  16.
 NSaved=16 IEnMin= 8 EnMin= -435.116597483999     IErMin= 6 ErrMin= 9.46D-05
 ErrMax= 6.86D-03  0.00D+00 EMaxC= 1.00D-01 BMatC= 9.79D-04 BMatP= 2.39D-07
 IDIUse=1 WtCom= 1.00D+00 WtEn= 0.00D+00
 Large coefficients: NSaved= 16 BigCof=    0.00 CofMax=   10.00 Det=-7.15D-16
 Inversion failed.  Reducing to 15 matrices.
 Coeff-Com: -0.582D+00-0.312D+01 0.786D+01-0.826D+00-0.513D+01 0.462D+00
 Coeff-Com:  0.173D+01 0.949D+00 0.212D+01-0.663D+01 0.407D+01 0.114D+00
 Coeff-Com:  0.819D+00 0.497D+01-0.581D+01
 Coeff:     -0.582D+00-0.312D+01 0.786D+01-0.826D+00-0.513D+01 0.462D+00
 Coeff:      0.173D+01 0.949D+00 0.212D+01-0.663D+01 0.407D+01 0.114D+00
 Coeff:      0.819D+00 0.497D+01-0.581D+01
 Gap=     0.445 Goal=   None    Shift=    0.000
 Gap=     0.404 Goal=   None    Shift=    0.000
 RMSDP=2.61D-06 MaxDP=1.70D-04 DE=-2.68D-06 OVMax= 1.78D-04

 Cycle  58  Pass 1  IDiag  1:
 E= -435.116383353199     Delta-E=       -0.000006372676 Rises=F Damp=F
 DIIS: error= 6.77D-03 at cycle  58 NSaved=  16.
 NSaved=16 IEnMin= 8 EnMin= -435.116597483999     IErMin= 6 ErrMin= 9.46D-05
 ErrMax= 6.77D-03  0.00D+00 EMaxC= 1.00D-01 BMatC= 9.50D-04 BMatP= 2.39D-07
 IDIUse=1 WtCom= 1.00D+00 WtEn= 0.00D+00
 Large coefficients: NSaved= 16 BigCof=    0.00 CofMax=   10.00 Det=-4.53D-16
 Inversion failed.  Reducing to 15 matrices.
 Coeff-Com: -0.544D+00-0.323D+01 0.774D+01-0.102D+01-0.453D+01 0.321D+00
 Coeff-Com:  0.144D+01 0.113D+01 0.303D+01-0.681D+01 0.334D+01 0.237D+00
 Coeff-Com: -0.415D+00-0.780D+00 0.109D+01
 Coeff:     -0.544D+00-0.323D+01 0.774D+01-0.102D+01-0.453D+01 0.321D+00
 Coeff:      0.144D+01 0.113D+01 0.303D+01-0.681D+01 0.334D+01 0.237D+00
 Coeff:     -0.415D+00-0.780D+00 0.109D+01
 Gap=     0.445 Goal=   None    Shift=    0.000
 Gap=     0.404 Goal=   None    Shift=    0.000
 RMSDP=3.43D-06 MaxDP=2.30D-04 DE=-6.37D-06 OVMax= 2.21D-04

 Cycle  59  Pass 1  IDiag  1:
 E= -435.116374702442     Delta-E=        0.000008650757 Rises=F Damp=F
 DIIS: error= 6.90D-03 at cycle  59 NSaved=  16.
 NSaved=16 IEnMin= 8 EnMin= -435.116597483999     IErMin= 6 ErrMin= 9.46D-05
 ErrMax= 6.90D-03  0.00D+00 EMaxC= 1.00D-01 BMatC= 9.89D-04 BMatP= 2.39D-07
 IDIUse=1 WtCom= 1.00D+00 WtEn= 0.00D+00
 Large coefficients: NSaved= 16 BigCof=    0.00 CofMax=   10.00 Det=-4.89D-16
 Inversion failed.  Reducing to 15 matrices.
 Coeff-Com: -0.552D+00-0.321D+01 0.777D+01-0.978D+00-0.466D+01 0.354D+00
 Coeff-Com:  0.150D+01 0.109D+01 0.284D+01-0.677D+01 0.350D+01 0.208D+00
 Coeff-Com: -0.225D+00 0.507D+00-0.364D+00
 Coeff:     -0.552D+00-0.321D+01 0.777D+01-0.978D+00-0.466D+01 0.354D+00
 Coeff:      0.150D+01 0.109D+01 0.284D+01-0.677D+01 0.350D+01 0.208D+00
 Coeff:     -0.225D+00 0.507D+00-0.364D+00
 Gap=     0.445 Goal=   None    Shift=    0.000
 Gap=     0.404 Goal=   None    Shift=    0.000
 RMSDP=6.86D-07 MaxDP=4.91D-05 DE= 8.65D-06 OVMax= 3.87D-05

 Cycle  60  Pass 1  IDiag  1:
 E= -435.116376550148     Delta-E=       -0.000001847706 Rises=F Damp=F
 DIIS: error= 6.87D-03 at cycle  60 NSaved=  16.
 NSaved=16 IEnMin= 8 EnMin= -435.116597483999     IErMin= 6 ErrMin= 9.46D-05
 ErrMax= 6.87D-03  0.00D+00 EMaxC= 1.00D-01 BMatC= 9.80D-04 BMatP= 2.39D-07
 IDIUse=1 WtCom= 1.00D+00 WtEn= 0.00D+00
 Large coefficients: NSaved= 16 BigCof=    0.00 CofMax=   10.00 Det=-4.79D-16
 Inversion failed.  Reducing to 15 matrices.
 Coeff-Com: -0.584D+00-0.311D+01 0.787D+01-0.801D+00-0.519D+01 0.480D+00
 Coeff-Com:  0.176D+01 0.920D+00 0.204D+01-0.662D+01 0.414D+01 0.102D+00
 Coeff-Com:  0.865D+00 0.783D+01-0.871D+01
 Coeff:     -0.584D+00-0.311D+01 0.787D+01-0.801D+00-0.519D+01 0.480D+00
 Coeff:      0.176D+01 0.920D+00 0.204D+01-0.662D+01 0.414D+01 0.102D+00
 Coeff:      0.865D+00 0.783D+01-0.871D+01
 Gap=     0.445 Goal=   None    Shift=    0.000
 Gap=     0.404 Goal=   None    Shift=    0.000
 RMSDP=3.24D-06 MaxDP=2.10D-04 DE=-1.85D-06 OVMax= 2.21D-04

 Cycle  61  Pass 1  IDiag  1:
 E= -435.116384411078     Delta-E=       -0.000007860929 Rises=F Damp=F
 DIIS: error= 6.75D-03 at cycle  61 NSaved=  16.
 NSaved=16 IEnMin= 8 EnMin= -435.116597483999     IErMin= 6 ErrMin= 9.46D-05
 ErrMax= 6.75D-03  0.00D+00 EMaxC= 1.00D-01 BMatC= 9.46D-04 BMatP= 2.39D-07
 IDIUse=1 WtCom= 1.00D+00 WtEn= 0.00D+00
 Large coefficients: NSaved= 16 BigCof=    0.00 CofMax=   10.00 Det=-4.05D-16
 Inversion failed.  Reducing to 15 matrices.
 Coeff-Com: -0.540D+00-0.323D+01 0.772D+01-0.103D+01-0.449D+01 0.312D+00
 Coeff-Com:  0.142D+01 0.114D+01 0.310D+01-0.682D+01 0.329D+01 0.248D+00
 Coeff-Com: -0.521D+00-0.705D+00 0.112D+01
 Coeff:     -0.540D+00-0.323D+01 0.772D+01-0.103D+01-0.449D+01 0.312D+00
 Coeff:      0.142D+01 0.114D+01 0.310D+01-0.682D+01 0.329D+01 0.248D+00
 Coeff:     -0.521D+00-0.705D+00 0.112D+01
 Gap=     0.445 Goal=   None    Shift=    0.000
 Gap=     0.404 Goal=   None    Shift=    0.000
 RMSDP=4.04D-06 MaxDP=2.70D-04 DE=-7.86D-06 OVMax= 2.62D-04

 Cycle  62  Pass 1  IDiag  1:
 E= -435.116374277351     Delta-E=        0.000010133726 Rises=F Damp=F
 DIIS: error= 6.91D-03 at cycle  62 NSaved=  16.
 NSaved=16 IEnMin= 8 EnMin= -435.116597483999     IErMin= 6 ErrMin= 9.46D-05
 ErrMax= 6.91D-03  0.00D+00 EMaxC= 1.00D-01 BMatC= 9.90D-04 BMatP= 2.39D-07
 IDIUse=1 WtCom= 1.00D+00 WtEn= 0.00D+00
 Large coefficients: NSaved= 16 BigCof=    0.00 CofMax=   10.00 Det=-9.36D-16
 Inversion failed.  Reducing to 15 matrices.
 Coeff-Com: -0.546D+00-0.322D+01 0.775D+01-0.997D+00-0.460D+01 0.340D+00
 Coeff-Com:  0.147D+01 0.110D+01 0.293D+01-0.679D+01 0.343D+01 0.223D+00
 Coeff-Com: -0.344D+00 0.649D+00-0.397D+00
 Coeff:     -0.546D+00-0.322D+01 0.775D+01-0.997D+00-0.460D+01 0.340D+00
 Coeff:      0.147D+01 0.110D+01 0.293D+01-0.679D+01 0.343D+01 0.223D+00
 Coeff:     -0.344D+00 0.649D+00-0.397D+00
 Gap=     0.445 Goal=   None    Shift=    0.000
 Gap=     0.404 Goal=   None    Shift=    0.000
 RMSDP=5.93D-07 MaxDP=4.24D-05 DE= 1.01D-05 OVMax= 3.36D-05

 Cycle  63  Pass 1  IDiag  1:
 E= -435.116375872943     Delta-E=       -0.000001595591 Rises=F Damp=F
 DIIS: error= 6.88D-03 at cycle  63 NSaved=  16.
 NSaved=16 IEnMin= 8 EnMin= -435.116597483999     IErMin= 6 ErrMin= 9.46D-05
 ErrMax= 6.88D-03  0.00D+00 EMaxC= 1.00D-01 BMatC= 9.83D-04 BMatP= 2.39D-07
 IDIUse=1 WtCom= 1.00D+00 WtEn= 0.00D+00
 Large coefficients: NSaved= 16 BigCof=    0.00 CofMax=   10.00 Det=-6.42D-16
 Inversion failed.  Reducing to 15 matrices.
 Large coefficients: NSaved= 15 BigCof=   10.63 CofMax=   10.00 Det=-8.91D-16
 Inversion failed.  Reducing to 14 matrices.
 Coeff-Com: -0.548D+00-0.319D+01 0.778D+01-0.928D+00-0.480D+01 0.400D+00
 Coeff-Com:  0.156D+01 0.100D+01 0.268D+01-0.677D+01 0.368D+01 0.184D+00
 Coeff-Com: -0.444D-01-0.241D-01
 Coeff:     -0.548D+00-0.319D+01 0.778D+01-0.928D+00-0.480D+01 0.400D+00
 Coeff:      0.156D+01 0.100D+01 0.268D+01-0.677D+01 0.368D+01 0.184D+00
 Coeff:     -0.444D-01-0.241D-01
 Gap=     0.445 Goal=   None    Shift=    0.000
 Gap=     0.404 Goal=   None    Shift=    0.000
 RMSDP=1.68D-06 MaxDP=1.16D-04 DE=-1.60D-06 OVMax= 1.06D-04

 Cycle  64  Pass 1  IDiag  1:
 E= -435.116380179315     Delta-E=       -0.000004306372 Rises=F Damp=F
 DIIS: error= 6.82D-03 at cycle  64 NSaved=  15.
 NSaved=15 IEnMin= 8 EnMin= -435.116597483999     IErMin= 6 ErrMin= 9.46D-05
 ErrMax= 6.82D-03  0.00D+00 EMaxC= 1.00D-01 BMatC= 9.64D-04 BMatP= 2.39D-07
 IDIUse=1 WtCom= 1.00D+00 WtEn= 0.00D+00
 Large coefficients: NSaved= 15 BigCof=   38.26 CofMax=   10.00 Det=-8.63D-17
 Inversion failed.  Reducing to 14 matrices.
 Coeff-Com: -0.555D+00-0.319D+01 0.779D+01-0.932D+00-0.480D+01 0.392D+00
 Coeff-Com:  0.157D+01 0.103D+01 0.265D+01-0.675D+01 0.367D+01 0.180D+00
 Coeff-Com: -0.139D+00 0.734D-01
 Coeff:     -0.555D+00-0.319D+01 0.779D+01-0.932D+00-0.480D+01 0.392D+00
 Coeff:      0.157D+01 0.103D+01 0.265D+01-0.675D+01 0.367D+01 0.180D+00
 Coeff:     -0.139D+00 0.734D-01
 Gap=     0.445 Goal=   None    Shift=    0.000
 Gap=     0.404 Goal=   None    Shift=    0.000
 RMSDP=5.49D-07 MaxDP=2.72D-05 DE=-4.31D-06 OVMax= 4.88D-05

 Cycle  65  Pass 1  IDiag  1:
 E= -435.116379181812     Delta-E=        0.000000997503 Rises=F Damp=F
 DIIS: error= 6.83D-03 at cycle  65 NSaved=  15.
 NSaved=15 IEnMin= 8 EnMin= -435.116597483999     IErMin= 6 ErrMin= 9.46D-05
 ErrMax= 6.83D-03  0.00D+00 EMaxC= 1.00D-01 BMatC= 9.69D-04 BMatP= 2.39D-07
 IDIUse=1 WtCom= 1.00D+00 WtEn= 0.00D+00
 Large coefficients: NSaved= 15 BigCof=    0.00 CofMax=   10.00 Det=-1.39D-17
 Inversion failed.  Reducing to 14 matrices.
 Coeff-Com: -0.557D+00-0.318D+01 0.779D+01-0.930D+00-0.481D+01 0.392D+00
 Coeff-Com:  0.157D+01 0.103D+01 0.263D+01-0.674D+01 0.368D+01 0.177D+00
 Coeff-Com:  0.682D+00-0.744D+00
 Coeff:     -0.557D+00-0.318D+01 0.779D+01-0.930D+00-0.481D+01 0.392D+00
 Coeff:      0.157D+01 0.103D+01 0.263D+01-0.674D+01 0.368D+01 0.177D+00
 Coeff:      0.682D+00-0.744D+00
 Gap=     0.445 Goal=   None    Shift=    0.000
 Gap=     0.404 Goal=   None    Shift=    0.000
 RMSDP=3.06D-08 MaxDP=1.49D-06 DE= 9.98D-07 OVMax= 3.34D-06

 Cycle  66  Pass 1  IDiag  1:
 E= -435.116379182316     Delta-E=       -0.000000000504 Rises=F Damp=F
 DIIS: error= 6.83D-03 at cycle  66 NSaved=  15.
 NSaved=15 IEnMin= 8 EnMin= -435.116597483999     IErMin= 6 ErrMin= 9.46D-05
 ErrMax= 6.83D-03  0.00D+00 EMaxC= 1.00D-01 BMatC= 9.69D-04 BMatP= 2.39D-07
 IDIUse=1 WtCom= 1.00D+00 WtEn= 0.00D+00
 Large coefficients: NSaved= 15 BigCof=    0.00 CofMax=   10.00 Det=-4.21D-19
 Inversion failed.  Reducing to 14 matrices.
 Large coefficients: NSaved= 14 BigCof=    0.00 CofMax=   10.00 Det=-4.96D-18
 Inversion failed.  Reducing to 13 matrices.
 Large coefficients: NSaved= 13 BigCof=    0.00 CofMax=   10.00 Det=-5.09D-18
 Inversion failed.  Reducing to 12 matrices.
 Large coefficients: NSaved= 12 BigCof=    0.00 CofMax=   10.00 Det=-5.13D-18
 Inversion failed.  Reducing to 11 matrices.
 Large coefficients: NSaved= 11 BigCof= 2676.87 CofMax=   10.00 Det=-1.21D-17
 Inversion failed.  Reducing to 10 matrices.
 Large coefficients: NSaved= 10 BigCof=    0.00 CofMax=   10.00 Det=-1.21D-17
 Inversion failed.  Reducing to  9 matrices.
 Large coefficients: NSaved=  9 BigCof=    0.00 CofMax=   10.00 Det=-1.53D-17
 Inversion failed.  Reducing to  8 matrices.
 Large coefficients: NSaved=  8 BigCof=  374.82 CofMax=   10.00 Det=-8.80D-17
 Inversion failed.  Reducing to  7 matrices.
 Large coefficients: NSaved=  7 BigCof=  168.86 CofMax=   10.00 Det=-1.83D-16
 Inversion failed.  Reducing to  6 matrices.
 Large coefficients: NSaved=  6 BigCof=  318.90 CofMax=   10.00 Det=-2.43D-16
 Inversion failed.  Reducing to  5 matrices.
 Large coefficients: NSaved=  5 BigCof=  259.24 CofMax=   10.00 Det=-2.78D-16
 Inversion failed.  Reducing to  4 matrices.
 Large coefficients: NSaved=  4 BigCof= 1172.33 CofMax=   10.00 Det=-3.67D-16
 Inversion failed.  Reducing to  3 matrices.
 Large coefficients: NSaved=  3 BigCof= 3819.43 CofMax=   10.00 Det=-3.09D-14
 Inversion failed.  Reducing to  2 matrices.
 Large coefficients: NSaved=  2 BigCof=34636.72 CofMax=   10.00 Det=-3.19D-14
 Coeff-Com: -0.346D+05 0.346D+05
 Coeff:     -0.346D+05 0.346D+05
 Gap=     0.450 Goal=   None    Shift=    0.000
 Gap=     0.401 Goal=   None    Shift=    0.000
 RMSDP=1.04D-03 MaxDP=4.97D-02 DE=-5.04D-10 OVMax= 1.14D-01

 Cycle  67  Pass 1  IDiag  1:
 E= -435.116560605425     Delta-E=       -0.000181423108 Rises=F Damp=F
 DIIS: error= 2.02D-03 at cycle  67 NSaved=   3.
 NSaved= 3 IEnMin= 3 EnMin= -435.116560605425     IErMin= 3 ErrMin= 2.02D-03
 ErrMax= 2.02D-03  0.00D+00 EMaxC= 1.00D-01 BMatC= 1.38D-04 BMatP= 9.69D-04
 IDIUse=1 WtCom= 1.00D+00 WtEn= 0.00D+00
 Large coefficients: NSaved=  3 BigCof= 8252.25 CofMax=   10.00 Det=-2.97D-14
 Inversion failed.  Reducing to  2 matrices.
 Coeff-Com: -0.134D+00 0.113D+01
 Coeff:     -0.134D+00 0.113D+01
 Gap=     0.456 Goal=   None    Shift=    0.000
 Gap=     0.405 Goal=   None    Shift=    0.000
 RMSDP=1.47D-04 MaxDP=6.19D-03 DE=-1.81D-04 OVMax= 1.52D-02

 Cycle  68  Pass 1  IDiag  1:
 E= -435.116593079281     Delta-E=       -0.000032473857 Rises=F Damp=F
 DIIS: error= 1.30D-03 at cycle  68 NSaved=   3.
 NSaved= 3 IEnMin= 3 EnMin= -435.116593079281     IErMin= 3 ErrMin= 1.30D-03
 ErrMax= 1.30D-03  0.00D+00 EMaxC= 1.00D-01 BMatC= 2.03D-05 BMatP= 1.38D-04
 IDIUse=1 WtCom= 1.00D+00 WtEn= 0.00D+00
 Coeff-Com: -0.135D+00 0.336D-01 0.110D+01
 Coeff:     -0.135D+00 0.336D-01 0.110D+01
 Gap=     0.455 Goal=   None    Shift=    0.000
 Gap=     0.404 Goal=   None    Shift=    0.000
 RMSDP=1.54D-04 MaxDP=6.87D-03 DE=-3.25D-05 OVMax= 1.68D-02

 Cycle  69  Pass 1  IDiag  1:
 E= -435.116598421577     Delta-E=       -0.000005342296 Rises=F Damp=F
 DIIS: error= 4.07D-04 at cycle  69 NSaved=   4.
 NSaved= 4 IEnMin= 4 EnMin= -435.116598421577     IErMin= 4 ErrMin= 4.07D-04
 ErrMax= 4.07D-04  0.00D+00 EMaxC= 1.00D-01 BMatC= 2.19D-06 BMatP= 2.03D-05
 IDIUse=1 WtCom= 1.00D+00 WtEn= 0.00D+00
 Coeff-Com:  0.462D-01-0.860D-01-0.624D+00 0.166D+01
 Coeff:      0.462D-01-0.860D-01-0.624D+00 0.166D+01
 Gap=     0.456 Goal=   None    Shift=    0.000
 Gap=     0.404 Goal=   None    Shift=    0.000
 RMSDP=6.11D-05 MaxDP=2.58D-03 DE=-5.34D-06 OVMax= 6.59D-03

 Cycle  70  Pass 1  IDiag  1:
 E= -435.116599191988     Delta-E=       -0.000000770411 Rises=F Damp=F
 DIIS: error= 4.17D-05 at cycle  70 NSaved=   5.
 NSaved= 5 IEnMin= 5 EnMin= -435.116599191988     IErMin= 5 ErrMin= 4.17D-05
 ErrMax= 4.17D-05  0.00D+00 EMaxC= 1.00D-01 BMatC= 7.20D-08 BMatP= 2.19D-06
 IDIUse=1 WtCom= 1.00D+00 WtEn= 0.00D+00
 Coeff-Com: -0.344D-03 0.187D-01 0.138D+00-0.404D+00 0.125D+01
 Coeff:     -0.344D-03 0.187D-01 0.138D+00-0.404D+00 0.125D+01
 Gap=     0.456 Goal=   None    Shift=    0.000
 Gap=     0.404 Goal=   None    Shift=    0.000
 RMSDP=1.14D-05 MaxDP=5.17D-04 DE=-7.70D-07 OVMax= 1.24D-03

 Cycle  71  Pass 1  IDiag  1:
 E= -435.116599225448     Delta-E=       -0.000000033460 Rises=F Damp=F
 DIIS: error= 7.54D-06 at cycle  71 NSaved=   6.
 NSaved= 6 IEnMin= 6 EnMin= -435.116599225448     IErMin= 6 ErrMin= 7.54D-06
 ErrMax= 7.54D-06  0.00D+00 EMaxC= 1.00D-01 BMatC= 2.96D-09 BMatP= 7.20D-08
 IDIUse=1 WtCom= 1.00D+00 WtEn= 0.00D+00
 Coeff-Com: -0.149D-02-0.326D-03-0.114D-01 0.330D-01-0.408D+00 0.139D+01
 Coeff:     -0.149D-02-0.326D-03-0.114D-01 0.330D-01-0.408D+00 0.139D+01
 Gap=     0.456 Goal=   None    Shift=    0.000
 Gap=     0.404 Goal=   None    Shift=    0.000
 RMSDP=1.91D-06 MaxDP=8.30D-05 DE=-3.35D-08 OVMax= 2.05D-04

 Cycle  72  Pass 1  IDiag  1:
 E= -435.116599228923     Delta-E=       -0.000000003475 Rises=F Damp=F
 DIIS: error= 2.95D-06 at cycle  72 NSaved=   7.
 NSaved= 7 IEnMin= 7 EnMin= -435.116599228923     IErMin= 7 ErrMin= 2.95D-06
 ErrMax= 2.95D-06  0.00D+00 EMaxC= 1.00D-01 BMatC= 4.99D-10 BMatP= 2.96D-09
 IDIUse=1 WtCom= 1.00D+00 WtEn= 0.00D+00
 Coeff-Com: -0.687D-03-0.614D-03-0.823D-02 0.220D-01-0.173D+00 0.469D+00
 Coeff-Com:  0.691D+00
 Coeff:     -0.687D-03-0.614D-03-0.823D-02 0.220D-01-0.173D+00 0.469D+00
 Coeff:      0.691D+00
 Gap=     0.456 Goal=   None    Shift=    0.000
 Gap=     0.404 Goal=   None    Shift=    0.000
 RMSDP=2.87D-07 MaxDP=1.27D-05 DE=-3.47D-09 OVMax= 3.04D-05

 Cycle  73  Pass 1  IDiag  1:
 E= -435.116599228615     Delta-E=        0.000000000308 Rises=F Damp=F
 DIIS: error= 2.65D-06 at cycle  73 NSaved=   8.
 NSaved= 8 IEnMin= 7 EnMin= -435.116599228923     IErMin= 8 ErrMin= 2.65D-06
 ErrMax= 2.65D-06  0.00D+00 EMaxC= 1.00D-01 BMatC= 1.34D-10 BMatP= 4.99D-10
 IDIUse=1 WtCom= 1.00D+00 WtEn= 0.00D+00
 Coeff-Com:  0.982D-05 0.668D-03 0.617D-02-0.191D-01 0.930D-01-0.212D+00
 Coeff-Com: -0.147D+00 0.128D+01
 Coeff:      0.982D-05 0.668D-03 0.617D-02-0.191D-01 0.930D-01-0.212D+00
 Coeff:     -0.147D+00 0.128D+01
 Gap=     0.456 Goal=   None    Shift=    0.000
 Gap=     0.404 Goal=   None    Shift=    0.000
 RMSDP=2.60D-07 MaxDP=1.16D-05 DE= 3.08D-10 OVMax= 2.81D-05

 Cycle  74  Pass 1  IDiag  1:
 E= -435.116599228274     Delta-E=        0.000000000341 Rises=F Damp=F
 DIIS: error= 2.61D-06 at cycle  74 NSaved=   9.
 NSaved= 9 IEnMin= 7 EnMin= -435.116599228923     IErMin= 9 ErrMin= 2.61D-06
 ErrMax= 2.61D-06  0.00D+00 EMaxC= 1.00D-01 BMatC= 8.85D-11 BMatP= 1.34D-10
 IDIUse=1 WtCom= 1.00D+00 WtEn= 0.00D+00
 Coeff-Com:  0.606D-04-0.236D-03-0.301D-02 0.904D-02-0.745D-01 0.214D+00
 Coeff-Com:  0.967D-01-0.120D+01 0.196D+01
 Coeff:      0.606D-04-0.236D-03-0.301D-02 0.904D-02-0.745D-01 0.214D+00
 Coeff:      0.967D-01-0.120D+01 0.196D+01
 Gap=     0.456 Goal=   None    Shift=    0.000
 Gap=     0.404 Goal=   None    Shift=    0.000
 RMSDP=3.00D-07 MaxDP=1.37D-05 DE= 3.41D-10 OVMax= 3.29D-05

 Cycle  75  Pass 1  IDiag  1:
 E= -435.116599228688     Delta-E=       -0.000000000413 Rises=F Damp=F
 DIIS: error= 2.63D-06 at cycle  75 NSaved=  10.
 NSaved=10 IEnMin= 7 EnMin= -435.116599228923     IErMin= 9 ErrMin= 2.61D-06
 ErrMax= 2.63D-06  0.00D+00 EMaxC= 1.00D-01 BMatC= 8.42D-11 BMatP= 8.85D-11
 IDIUse=1 WtCom= 1.00D+00 WtEn= 0.00D+00
 Coeff-Com:  0.254D-04-0.198D-03-0.277D-02 0.778D-02-0.651D-01 0.195D+00
 Coeff-Com:  0.105D+00-0.102D+01 0.848D+00 0.935D+00
 Coeff:      0.254D-04-0.198D-03-0.277D-02 0.778D-02-0.651D-01 0.195D+00
 Coeff:      0.105D+00-0.102D+01 0.848D+00 0.935D+00
 Gap=     0.456 Goal=   None    Shift=    0.000
 Gap=     0.404 Goal=   None    Shift=    0.000
 RMSDP=1.93D-07 MaxDP=8.85D-06 DE=-4.13D-10 OVMax= 2.12D-05

 Cycle  76  Pass 1  IDiag  1:
 E= -435.116599228954     Delta-E=       -0.000000000266 Rises=F Damp=F
 DIIS: error= 2.63D-06 at cycle  76 NSaved=  11.
 NSaved=11 IEnMin=11 EnMin= -435.116599228954     IErMin= 9 ErrMin= 2.61D-06
 ErrMax= 2.63D-06  0.00D+00 EMaxC= 1.00D-01 BMatC= 8.38D-11 BMatP= 8.42D-11
 IDIUse=1 WtCom= 1.00D+00 WtEn= 0.00D+00
 Coeff-Com:  0.620D-05-0.141D-03-0.227D-02 0.603D-02-0.541D-01 0.169D+00
 Coeff-Com:  0.974D-01-0.849D+00 0.300D+00 0.567D+00 0.766D+00
 Coeff:      0.620D-05-0.141D-03-0.227D-02 0.603D-02-0.541D-01 0.169D+00
 Coeff:      0.974D-01-0.849D+00 0.300D+00 0.567D+00 0.766D+00
 Gap=     0.456 Goal=   None    Shift=    0.000
 Gap=     0.404 Goal=   None    Shift=    0.000
 RMSDP=2.11D-07 MaxDP=9.66D-06 DE=-2.66D-10 OVMax= 2.32D-05

 Cycle  77  Pass 1  IDiag  1:
 E= -435.116599229242     Delta-E=       -0.000000000289 Rises=F Damp=F
 DIIS: error= 2.63D-06 at cycle  77 NSaved=  12.
 NSaved=12 IEnMin=12 EnMin= -435.116599229242     IErMin= 9 ErrMin= 2.61D-06
 ErrMax= 2.63D-06  0.00D+00 EMaxC= 1.00D-01 BMatC= 8.38D-11 BMatP= 8.38D-11
 IDIUse=1 WtCom= 1.00D+00 WtEn= 0.00D+00
 Large coefficients: NSaved= 12 BigCof=   43.87 CofMax=   10.00 Det=-1.39D-16
 Inversion failed.  Reducing to 11 matrices.
 Large coefficients: NSaved= 11 BigCof=   12.18 CofMax=   10.00 Det=-4.60D-16
 Inversion failed.  Reducing to 10 matrices.
 Coeff-Com: -0.103D-02 0.213D-02-0.325D-01 0.119D+00 0.661D-01-0.603D+00
 Coeff-Com: -0.124D+00 0.260D+00 0.422D+00 0.892D+00
 Coeff:     -0.103D-02 0.213D-02-0.325D-01 0.119D+00 0.661D-01-0.603D+00
 Coeff:     -0.124D+00 0.260D+00 0.422D+00 0.892D+00
 Gap=     0.456 Goal=   None    Shift=    0.000
 Gap=     0.404 Goal=   None    Shift=    0.000
 RMSDP=3.10D-07 MaxDP=1.42D-05 DE=-2.89D-10 OVMax= 3.41D-05

 Cycle  78  Pass 1  IDiag  1:
 E= -435.116599229672     Delta-E=       -0.000000000430 Rises=F Damp=F
 DIIS: error= 2.63D-06 at cycle  78 NSaved=  11.
 NSaved=11 IEnMin=11 EnMin= -435.116599229672     IErMin= 7 ErrMin= 2.61D-06
 ErrMax= 2.63D-06  0.00D+00 EMaxC= 1.00D-01 BMatC= 8.37D-11 BMatP= 8.38D-11
 IDIUse=1 WtCom= 1.00D+00 WtEn= 0.00D+00
 Large coefficients: NSaved= 11 BigCof=  422.58 CofMax=   10.00 Det=-8.30D-18
 Inversion failed.  Reducing to 10 matrices.
 Large coefficients: NSaved= 10 BigCof=  337.66 CofMax=   10.00 Det=-8.74D-18
 Inversion failed.  Reducing to  9 matrices.
 Large coefficients: NSaved=  9 BigCof=  334.62 CofMax=   10.00 Det=-8.74D-18
 Inversion failed.  Reducing to  8 matrices.
 Large coefficients: NSaved=  8 BigCof=  159.62 CofMax=   10.00 Det=-8.71D-17
 Inversion failed.  Reducing to  7 matrices.
 Large coefficients: NSaved=  7 BigCof=  111.13 CofMax=   10.00 Det=-2.23D-16
 Inversion failed.  Reducing to  6 matrices.
 Coeff-Com:  0.108D-01-0.166D-01-0.299D+00-0.380D+01 0.269D+01 0.242D+01
 Coeff:      0.108D-01-0.166D-01-0.299D+00-0.380D+01 0.269D+01 0.242D+01
 Gap=     0.456 Goal=   None    Shift=    0.000
 Gap=     0.404 Goal=   None    Shift=    0.000
 RMSDP=1.44D-06 MaxDP=6.59D-05 DE=-4.30D-10 OVMax= 1.58D-04

 Cycle  79  Pass 1  IDiag  1:
 E= -435.116599231650     Delta-E=       -0.000000001978 Rises=F Damp=F
 DIIS: error= 2.61D-06 at cycle  79 NSaved=   7.
 NSaved= 7 IEnMin= 7 EnMin= -435.116599231650     IErMin= 7 ErrMin= 2.61D-06
 ErrMax= 2.61D-06  0.00D+00 EMaxC= 1.00D-01 BMatC= 8.54D-11 BMatP= 8.37D-11
 IDIUse=1 WtCom= 1.00D+00 WtEn= 0.00D+00
 Coeff-Com: -0.335D-01 0.152D-01 0.508D+00-0.290D+01 0.239D+00 0.783D+01
 Coeff-Com: -0.465D+01
 Coeff:     -0.335D-01 0.152D-01 0.508D+00-0.290D+01 0.239D+00 0.783D+01
 Coeff:     -0.465D+01
 Gap=     0.456 Goal=   None    Shift=    0.000
 Gap=     0.404 Goal=   None    Shift=    0.000
 RMSDP=6.98D-06 MaxDP=3.20D-04 DE=-1.98D-09 OVMax= 7.68D-04

 Cycle  80  Pass 1  IDiag  1:
 E= -435.116599222026     Delta-E=        0.000000009624 Rises=F Damp=F
 DIIS: error= 2.64D-06 at cycle  80 NSaved=   8.
 NSaved= 8 IEnMin= 7 EnMin= -435.116599231650     IErMin= 7 ErrMin= 2.61D-06
 ErrMax= 2.64D-06  0.00D+00 EMaxC= 1.00D-01 BMatC= 8.44D-11 BMatP= 8.37D-11
 IDIUse=1 WtCom= 1.00D+00 WtEn= 0.00D+00
 Large coefficients: NSaved=  8 BigCof=   24.52 CofMax=   10.00 Det=-2.31D-15
 Inversion failed.  Reducing to  7 matrices.
 Large coefficients: NSaved=  7 BigCof=   21.67 CofMax=   10.00 Det=-3.53D-15
 Inversion failed.  Reducing to  6 matrices.
 Large coefficients: NSaved=  6 BigCof=   21.63 CofMax=   10.00 Det=-3.53D-15
 Inversion failed.  Reducing to  5 matrices.
 Large coefficients: NSaved=  5 BigCof=   22.76 CofMax=   10.00 Det=-3.54D-15
 Inversion failed.  Reducing to  4 matrices.
 Large coefficients: NSaved=  4 BigCof=   22.94 CofMax=   10.00 Det=-8.93D-15
 Inversion failed.  Reducing to  3 matrices.
 Large coefficients: NSaved=  3 BigCof=   12.55 CofMax=   10.00 Det=-3.13D-14
 Inversion failed.  Reducing to  2 matrices.
 Coeff-Com: -0.194D+01 0.294D+01
 Coeff:     -0.194D+01 0.294D+01
 Gap=     0.456 Goal=   None    Shift=    0.000
 Gap=     0.404 Goal=   None    Shift=    0.000
 RMSDP=1.35D-05 MaxDP=6.17D-04 DE= 9.62D-09 OVMax= 1.48D-03

 Cycle  81  Pass 1  IDiag  1:
 E= -435.116599203325     Delta-E=        0.000000018702 Rises=F Damp=F
 DIIS: error= 2.66D-06 at cycle  81 NSaved=   3.
 NSaved= 3 IEnMin= 1 EnMin= -435.116599231650     IErMin= 1 ErrMin= 2.61D-06
 ErrMax= 2.66D-06  0.00D+00 EMaxC= 1.00D-01 BMatC= 8.82D-11 BMatP= 8.44D-11
 IDIUse=1 WtCom= 1.00D+00 WtEn= 0.00D+00
 Coeff-Com: -0.174D+01 0.404D+01-0.130D+01
 Coeff:     -0.174D+01 0.404D+01-0.130D+01
 Gap=     0.456 Goal=   None    Shift=    0.000
 Gap=     0.404 Goal=   None    Shift=    0.000
 RMSDP=1.89D-05 MaxDP=8.67D-04 DE= 1.87D-08 OVMax= 2.08D-03

 Cycle  82  Pass 1  IDiag  1:
 E= -435.116599229556     Delta-E=       -0.000000026231 Rises=F Damp=F
 DIIS: error= 2.62D-06 at cycle  82 NSaved=   4.
 NSaved= 4 IEnMin= 1 EnMin= -435.116599231650     IErMin= 1 ErrMin= 2.61D-06
[...]
 
     X                            X                                     X   X              XX                               X X      
     X                            X                                     X   X                                                        
     X                            X                                     X   X                                                        
     X                            X                                     X                                                            
     X                            X                                     X                                                            
     X                            X                                                                                                  
     X                            X                                                                                                  
     X                            X                                                                                                  
     X                            X                                                                                                  
     X                            X                                                                                                  
     X                            X                                                                                                  
     X                            X                                                                                                  
     X                            X                                                                                                  
     X                            X                                                                                                  
     X                                                                                                                               
     X                                                                                                                               
     X                                                                                                                               
     X                                                                                                                               
     X                                                                                                                               
     X                                                                                                                               
 
 
                                                          Distorted Ethanol
                                                            Raman Spectrum
 
     1                            1                                                                                                  
     9                            4                                     9   8              66                               1        
     0                            7                                     0   4              10                               3 9      
     3                            3                                     9   5              11                               2 6      
 
     X                            X                                     X   X              XX                               X        
     X                            X                                     X   X              XX                                        
                                  X                                     X   X              XX                                        
                                  X                                     X                  XX                                        
                                  X                                     X                   X                                        
                                                                        X                                                            
                                                                        X                                                            
                                                                        X                                                            
                                                                        X                                                            
                                                                        X                                                            
                                                                        X                                                            
                                                                        X                                                            
                                                                        X                                                            
                                                                        X                                                            
                                                                        X                                                            
                                                                        X                                                            
                                                                        X                                                            
                                                                        X                                                            
                                                                        X                                                            
                                                                        X                                                            
 
 Forces in standard orientation:
 -------------------------------------------------------------------
 Center     Atomic                   Forces (Hartrees/Bohr)
 Number     Number              X              Y              Z
 -------------------------------------------------------------------
      1        6           0.139590394    0.013930648    0.152886923
      2        9          -0.093180608   -0.048022056   -0.064721500
      3        9          -0.041780993    0.022527841   -0.038547228
      4        9          -0.000001716   -0.000000005   -0.000000035
      5        9          -0.004627078    0.011563571   -0.049618160
 -------------------------------------------------------------------
 ***** Axes restored to original set *****
 Rotating derivatives, DoTrsp=F IDiff=-2 LEDeriv=    772 LFDPrp=       0 LDFDPr=       0.
 -------------------------------------------------------------------
 Center     Atomic                   Forces (Hartrees/Bohr)
 Number     Number              X              Y              Z
 -------------------------------------------------------------------
      1        6           0.119966064   -0.167826548   -0.022278818
      2        9          -0.066933800    0.097270678   -0.035155338
      3        9          -0.016593580    0.052642734    0.026314245
      4        9           0.000000196    0.000001654   -0.000000414
      5        9          -0.036438880    0.017911482    0.031120325
 -------------------------------------------------------------------
 Cartesian Forces:  Max     0.167826548 RMS     0.065618951
 Z-matrix is all fixed cartesians, so copy forces.
 Force constants in Cartesian coordinates: 
                1             2             3             4             5 
      1  0.542996D+00
      2  0.356306D+00  0.846205D+00
      3  0.224299D+00  0.134635D+00  0.770754D+00
      4 -0.116717D+00  0.145930D-01 -0.206704D-01  0.845965D-01
      5 -0.671719D-02 -0.159785D+00  0.400796D-01 -0.636420D-02  0.237944D+00
      6 -0.231144D-04  0.231247D-01 -0.145519D+00  0.393803D-01 -0.888711D-01
      7 -0.293137D+00 -0.341655D+00 -0.810380D-01  0.200794D-01 -0.423088D-02
      8 -0.318079D+00 -0.562299D+00 -0.985053D-01 -0.261787D-01 -0.848303D-01
      9 -0.747258D-01 -0.893987D-01 -0.110359D+00  0.714430D-02  0.261322D-01
     10  0.000000D+00  0.000000D+00  0.000000D+00  0.000000D+00  0.000000D+00
     11  0.000000D+00  0.000000D+00  0.000000D+00  0.000000D+00  0.000000D+00
     12  0.000000D+00  0.000000D+00  0.000000D+00  0.000000D+00  0.000000D+00
     13 -0.133141D+00 -0.292443D-01 -0.122590D+00  0.120412D-01  0.173124D-01
     14 -0.315099D-01 -0.124121D+00 -0.762088D-01  0.179499D-01  0.667144D-02
     15 -0.149550D+00 -0.683607D-01 -0.514876D+00 -0.258543D-01  0.226594D-01
                6             7             8             9            10 
      6  0.176523D+00
      7 -0.183542D-02  0.278869D+00
      8  0.211357D-01  0.386839D+00  0.661882D+00
      9  0.244214D-01  0.119307D+00  0.127752D+00  0.116022D+00
     10  0.000000D+00  0.000000D+00  0.000000D+00  0.000000D+00  0.000000D+00
     11  0.000000D+00  0.000000D+00  0.000000D+00  0.000000D+00  0.000000D+00
     12  0.000000D+00  0.000000D+00  0.000000D+00  0.000000D+00  0.000000D+00
     13 -0.375218D-01 -0.581127D-02 -0.425808D-01 -0.517251D-01  0.000000D+00
     14  0.446105D-01 -0.409527D-01 -0.147530D-01 -0.644855D-01  0.000000D+00
     15 -0.554255D-01 -0.364331D-01 -0.503825D-01 -0.300850D-01  0.000000D+00
               11            12            13            14            15 
     11  0.000000D+00
     12  0.000000D+00  0.000000D+00
     13  0.000000D+00  0.000000D+00  0.126911D+00
     14  0.000000D+00  0.000000D+00  0.545127D-01  0.132203D+00
     15  0.000000D+00  0.000000D+00  0.211837D+00  0.960837D-01  0.600387D+00
 Final forces over variables, Energy=-4.35116600D+02:
  1.19966064D-01-6.69338000D-02-1.65935795D-02 1.95617620D-07
 -3.64388801D-02-1.67826548D-01 9.72706778D-02 5.26427338D-02
  1.65368812D-06 1.79114825D-02-2.22788182D-02-3.51553382D-02
  2.63142455D-02-4.14146229D-07 3.11203251D-02
 Leave Link  716 at Sat Mar  4 13:40:51 2017, MaxMem=   655360000 cpu:         0.2
 (Enter /mnt/software/gaussian/g09/l103.exe)

 GradGradGradGradGradGradGradGradGradGradGradGradGradGradGradGradGradGrad
 Berny optimization.
 Search for a local minimum.
 Step number   1 out of a maximum of    2
 All quantities printed in internal units (Hartrees-Bohrs-Radians)
 Second derivative matrix not updated -- analytic derivatives used.
 The second derivative matrix:
                          X1        Y1        Z1        X2        Y2
           X1           0.54300
           Y1           0.35631   0.84620
           Z1           0.22430   0.13463   0.77075
           X2          -0.11672   0.01459  -0.02067   0.08460
           Y2          -0.00672  -0.15979   0.04008  -0.00636   0.23794
           Z2          -0.00002   0.02312  -0.14552   0.03938  -0.08887
           X3          -0.29314  -0.34165  -0.08104   0.02008  -0.00423
           Y3          -0.31808  -0.56230  -0.09851  -0.02618  -0.08483
           Z3          -0.07473  -0.08940  -0.11036   0.00714   0.02613
           X4           0.00000   0.00000   0.00000   0.00000   0.00000
           Y4           0.00000   0.00000   0.00000   0.00000   0.00000
           Z4           0.00000   0.00000   0.00000   0.00000   0.00000
           X5          -0.13314  -0.02924  -0.12259   0.01204   0.01731
           Y5          -0.03151  -0.12412  -0.07621   0.01795   0.00667
           Z5          -0.14955  -0.06836  -0.51488  -0.02585   0.02266
                          Z2        X3        Y3        Z3        X4
           Z2           0.17652
           X3          -0.00184   0.27887
           Y3           0.02114   0.38684   0.66188
           Z3           0.02442   0.11931   0.12775   0.11602
           X4           0.00000   0.00000   0.00000   0.00000   0.00000
           Y4           0.00000   0.00000   0.00000   0.00000   0.00000
           Z4           0.00000   0.00000   0.00000   0.00000   0.00000
           X5          -0.03752  -0.00581  -0.04258  -0.05173   0.00000
           Y5           0.04461  -0.04095  -0.01475  -0.06449   0.00000
           Z5          -0.05543  -0.03643  -0.05038  -0.03008   0.00000
                          Y4        Z4        X5        Y5        Z5
           Y4           0.00000
           Z4           0.00000   0.00000
           X5           0.00000   0.00000   0.12691
           Y5           0.00000   0.00000   0.05451   0.13220
           Z5           0.00000   0.00000   0.21184   0.09608   0.60039
 ITU=  0
     Eigenvalues ---    0.00000   0.00662   0.01237   0.25351   0.25767
     Eigenvalues ---    0.36647   0.51661   1.21944   1.91044
 Eigenvalue     1 is  -3.13D-07 should be greater than     0.000000 Eigenvector:
                          Y4        Y1        Y5        Y3        Y2
   1                    0.85008  -0.22274  -0.22274  -0.22274  -0.22274
                          Z4        X4        Z1        Z2        Z5
   1                   -0.21933   0.11751   0.05747   0.05747   0.05747
 Quadratic step=6.855D+00 exceeds max=3.000D-01 adjusted using Lamda=-4.082D-01.
 Angle between NR and scaled steps=  83.65 degrees.
 Angle between quadratic step and forces=  14.49 degrees.
 Linear search not attempted -- first point.
 TrRot= -0.005323  0.006497  0.000705  1.580701 -0.000106 -1.580354
 MatCor failed.
 Variable       Old X    -DE/DX   Delta X   Delta X   Delta X     New X
                                 (Linear)    (Quad)   (Total)
    X1       -0.93172   0.11997   0.00000   0.19151   0.18262  -0.74910
    Y1       10.42353  -0.16783   0.00000  -0.16472  -0.15834  10.26518
    Z1       -1.30042  -0.02228   0.00000  -0.03348  -0.03168  -1.33211
    X2       -0.18714  -0.06693   0.00000  -0.06787  -0.07612  -0.26326
    Y2        8.32088   0.09727   0.00000   0.10466   0.11107   8.43195
    Z2       -0.01155  -0.03516   0.00000  -0.04601  -0.04441  -0.05596
    X3        0.34390  -0.01659   0.00000  -0.04123  -0.05081   0.29308
    Y3       12.23124   0.05264   0.00000   0.03145   0.03814  12.26938
    Z3       -0.90637   0.02631   0.00000   0.03728   0.03929  -0.86708
    X4       -4.24818   0.00000   0.00000  -0.00154  -0.00117  -4.24936
    Y4      -16.34949   0.00000   0.00000  -0.00437   0.00007 -16.34942
    Z4        5.42358   0.00000   0.00000   0.00135   0.00032   5.42390
    X5       -1.58972  -0.03644   0.00000  -0.04573  -0.05451  -1.64424
    Y5        9.95561   0.01791   0.00000   0.00276   0.00906   9.96467
    Z5       -3.48824   0.03112   0.00000   0.03472   0.03648  -3.45176
         Item               Value     Threshold  Converged?
 Maximum Force            0.167827     0.000450     NO 
 RMS     Force            0.065619     0.000300     NO 
 Maximum Displacement     0.182621     0.001800     NO 
 RMS     Displacement     0.077243     0.001200     NO 
 Predicted change in Energy=-5.528893D-02
 GradGradGradGradGradGradGradGradGradGradGradGradGradGradGradGradGradGrad

 Leave Link  103 at Sat Mar  4 13:40:52 2017, MaxMem=   655360000 cpu:         0.1
 (Enter /mnt/software/gaussian/g09/l9999.exe)

 Test job not archived.
 1\1\GINC-TP-LINUX1\Freq\UHF\6-31G(d)\C1F4(1+,2)\THOMAS\04-Mar-2017\0\\
 #P UHF/6-31g* IOP(7/33=1) IOP(7/8=11) Freq\\Distorted Ethanol\\1,2\C,-
 0.493047,5.515892,-0.688155\F,-0.099032,4.403219,-0.006114\F,0.181982,
 6.472491,-0.479632\F,-2.248042,-8.65178,2.870034\F,-0.841246,5.268284,
 -1.845898\\Version=ES64L-G09RevD.01\State=2-A\HF=-435.1166002\S2=0.752
 673\S2-1=0.\S2A=0.750003\RMSD=9.971e-09\RMSF=6.562e-02\ZeroPoint=0.014
 9656\Thermal=0.0196551\Dipole=0.3076895,6.1414057,-1.3681107\DipoleDer
 iv=1.5411047,0.346219,0.410606,0.299728,2.2696165,-0.025672,0.4394529,
 -0.0553689,2.1439352,-0.1623768,0.0899667,-0.1249501,-0.0156566,-0.416
 0194,0.1822792,-0.0303923,0.113771,-0.2942775,-0.2287989,-0.3798558,-0
 .1559125,-0.2171437,-0.6268907,-0.1019008,-0.0941984,-0.0174439,-0.201
 5524,0.000072,-0.0000234,0.0000082,-0.0000234,-0.0001305,0.0000513,0.0
 000088,0.0000514,0.0000612,-0.1500011,-0.0563064,-0.1297515,-0.0669043
 ,-0.2265758,-0.0547577,-0.314871,-0.0410096,-0.6481666\Polar=10.243356
 2,0.3763949,13.3008676,1.8048771,-0.6970568,12.4914808\PolarDeriv=-3.2
 377895,0.7983973,-1.9412527,-0.0210272,0.3512102,-1.0264155,0.2016122,
 -1.8561489,2.5069666,0.4362169,-0.3421304,0.7739485,0.2653559,0.223648
 6,-0.0321769,-1.0456908,1.0465881,1.7592345,1.5529906,-1.6786852,0.757
 4203,1.0971898,-0.33501,0.8074771,-0.8475805,1.07456,-5.5626524,-0.548
 3991,1.8394572,-1.2213663,0.4297284,-0.4813617,1.2880712,1.0679442,-2.
 1266492,2.7078923,2.4180592,1.3370003,1.2565258,0.4069103,0.1124038,0.
 9241713,0.9224667,1.4019565,3.9250147,0.1622053,0.1613774,0.7775788,0.
 1988348,0.3091574,-0.079985,0.9048784,1.3183116,0.7174762,0.0001434,0.
 0006035,0.0002822,-0.000059,0.000632,-0.0003675,-0.0000863,0.0001618,0
 .0003451,-0.0000426,-0.0000876,-0.0001301,0.0002014,0.000686,0.000013,
 -0.0001001,0.0005184,-0.0002155,-0.7334037,-0.4573159,-0.0729756,-1.48
 30139,-0.129236,-0.7048654,-0.2764121,-0.6205294,-0.869674,-0.0499805,
 -1.6586166,-0.3300309,-0.8941206,-0.0521303,-1.1759223,-0.9270317,-0.2
 38769,-5.1843874\HyperPolar=-8.1352539,0.7633111,-9.5473214,5.0951023,
 -1.2562149,2.4179888,-2.2136144,-1.0977725,4.6269318,11.1829316\PG=C01
  [X(C1F4)]\NImag=1\\0.54299555,0.35630595,0.84620470,0.22429898,0.1346
 3473,0.77075422,-0.11671732,0.01459300,-0.02067041,0.08459654,-0.00671
 719,-0.15978543,0.04007963,-0.00636420,0.23794443,-0.00002311,0.023124
 73,-0.14551895,0.03938030,-0.08887106,0.17652296,-0.29313667,-0.341654
 87,-0.08103802,0.02007944,-0.00423088,-0.00183542,0.27886853,-0.318078
 89,-0.56229876,-0.09850531,-0.02617873,-0.08483031,0.02113573,0.386838
 50,0.66188228,-0.07472582,-0.08939874,-0.11035868,0.00714430,0.0261321
 5,0.02442143,0.11930657,0.12775206,0.11602218,-0.00000021,0.00000019,-
 0.00000032,0.00000010,-0.00000013,0.00000007,-0.00000003,-0.00000005,0
 .00000004,0.00000010,0.00000007,0.00000057,-0.00000023,0.00000005,-0.0
 0000013,0.00000006,-0.00000008,-0.00000016,0.00000003,-0.00000003,-0.0
 0000023,-0.00000017,-0.00000005,-0.00000033,0.00000007,-0.00000009,0.0
 0000006,0.,0.00000002,0.00000004,0.00000005,0.00000008,0.00000008,-0.1
 3314134,-0.02924427,-0.12259023,0.01204125,0.01731239,-0.03752184,-0.0
 0581127,-0.04258085,-0.05172508,0.00000004,0.,0.00000004,0.12691132,-0
 .03150994,-0.12412108,-0.07620882,0.01794987,0.00667144,0.04461054,-0.
 04095268,-0.01475305,-0.06448550,0.00000002,-0.00000005,0.00000004,0.0
 5451273,0.13220273,-0.14954987,-0.06836066,-0.51487626,-0.02585426,0.0
 2265936,-0.05542549,-0.03643314,-0.05038250,-0.03008497,0.00000015,0.0
 0000007,0.00000015,0.21183712,0.09608374,0.60038658\\-0.11996606,0.167
 82655,0.02227882,0.06693380,-0.09727068,0.03515534,0.01659358,-0.05264
 273,-0.02631425,-0.00000020,-0.00000165,0.00000041,0.03643888,-0.01791
 148,-0.03112033\\\@


 THE ENLIGHTENED ONE, BECAUSE HE SAW MANKIND DROWNING  
 IN THE GREAT SEA OF BIRTH, DEATH, AND SORROW, LONGED TO SAVE 
 THEM, FOR THIS HE WAS MOVED TO PITY.                         
 BECAUSE HE SAW MEN OF THE WORLD STRAYING IN FALSE PATHS, AND 
 NONE TO GUIDE THEM, FOR THIS HE WAS MOVED TO PITY.           
                     ..................                       
 BECAUSE HE SAW THE MEN OF THE WORLD PLOUGHING THEIR FIELDS,  
 SOWING THE SEED, TRAFFICKING, HUCKSTERING, BUYING, SELLING,  
 AND AT THE END WINNOWING NOTHING BUT BITTERNESS,             
 FOR THIS HE WAS MOVED TO PITY......                   
                   BUDAH'S PITY - UPSAKA SILA SUTRA           
 Job cpu time:       0 days  0 hours  0 minutes 30.3 seconds.
 File lengths (MBytes):  RWF=     12 Int=      0 D2E=      0 Chk=      2 Scr=      1
 Normal termination of Gaussian 09 at Sat Mar  4 13:40:52 2017.
