 Entering Gaussian System, Link 0=g09
 Input=/home/thomas/cf4/DD-vMCG/dd_data/gwp8_V1_dd_data.com
 Output=/home/thomas/cf4/DD-vMCG/dd_data/gwp8_V1_dd_data.log
 Initial command:
 /mnt/software/gaussian/g09/l1.exe "/scratch/Gau-30235.inp" -scrdir="/scratch/"
 Entering Link 1 = /mnt/software/gaussian/g09/l1.exe PID=     30238.
  
 Copyright (c) 1988,1990,1992,1993,1995,1998,2003,2009,2013,
            Gaussian, Inc.  All Rights Reserved.
  
 This is part of the Gaussian(R) 09 program.  It is based on
 the Gaussian(R) 03 system (copyright 2003, Gaussian, Inc.),
 the Gaussian(R) 98 system (copyright 1998, Gaussian, Inc.),
 the Gaussian(R) 94 system (copyright 1995, Gaussian, Inc.),
 the Gaussian 92(TM) system (copyright 1992, Gaussian, Inc.),
 the Gaussian 90(TM) system (copyright 1990, Gaussian, Inc.),
 the Gaussian 88(TM) system (copyright 1988, Gaussian, Inc.),
 the Gaussian 86(TM) system (copyright 1986, Carnegie Mellon
 University), and the Gaussian 82(TM) system (copyright 1983,
 Carnegie Mellon University). Gaussian is a federally registered
 trademark of Gaussian, Inc.
  
 This software contains proprietary and confidential information,
 including trade secrets, belonging to Gaussian, Inc.
  
 This software is provided under written license and may be
 used, copied, transmitted, or stored only in accord with that
 written license.
  
 The following legend is applicable only to US Government
 contracts under FAR:
  
                    RESTRICTED RIGHTS LEGEND
  
 Use, reproduction and disclosure by the US Government is
 subject to restrictions as set forth in subparagraphs (a)
 and (c) of the Commercial Computer Software - Restricted
 Rights clause in FAR 52.227-19.
  
 Gaussian, Inc.
 340 Quinnipiac St., Bldg. 40, Wallingford CT 06492
  
  
 ---------------------------------------------------------------
 Warning -- This program may not be used in any manner that
 competes with the business of Gaussian, Inc. or will provide
 assistance to any competitor of Gaussian, Inc.  The licensee
 of this program is prohibited from giving any competitor of
 Gaussian, Inc. access to this program.  By using this program,
 the user acknowledges that Gaussian, Inc. is engaged in the
 business of creating and licensing software in the field of
 computational chemistry and represents and warrants to the
 licensee that it is not a competitor of Gaussian, Inc. and that
 it will not use this program in any manner prohibited above.
 ---------------------------------------------------------------
  

 Cite this work as:
 Gaussian 09, Revision D.01,
 M. J. Frisch, G. W. Trucks, H. B. Schlegel, G. E. Scuseria, 
 M. A. Robb, J. R. Cheeseman, G. Scalmani, V. Barone, B. Mennucci, 
 G. A. Petersson, H. Nakatsuji, M. Caricato, X. Li, H. P. Hratchian, 
 A. F. Izmaylov, J. Bloino, G. Zheng, J. L. Sonnenberg, M. Hada, 
 M. Ehara, K. Toyota, R. Fukuda, J. Hasegawa, M. Ishida, T. Nakajima, 
 Y. Honda, O. Kitao, H. Nakai, T. Vreven, J. A. Montgomery, Jr., 
 J. E. Peralta, F. Ogliaro, M. Bearpark, J. J. Heyd, E. Brothers, 
 K. N. Kudin, V. N. Staroverov, T. Keith, R. Kobayashi, J. Normand, 
 K. Raghavachari, A. Rendell, J. C. Burant, S. S. Iyengar, J. Tomasi, 
 M. Cossi, N. Rega, J. M. Millam, M. Klene, J. E. Knox, J. B. Cross, 
 V. Bakken, C. Adamo, J. Jaramillo, R. Gomperts, R. E. Stratmann, 
 O. Yazyev, A. J. Austin, R. Cammi, C. Pomelli, J. W. Ochterski, 
 R. L. Martin, K. Morokuma, V. G. Zakrzewski, G. A. Voth, 
 P. Salvador, J. J. Dannenberg, S. Dapprich, A. D. Daniels, 
 O. Farkas, J. B. Foresman, J. V. Ortiz, J. Cioslowski, 
 and D. J. Fox, Gaussian, Inc., Wallingford CT, 2013.
 
 ******************************************
 Gaussian 09:  ES64L-G09RevD.01 24-Apr-2013
                 4-Mar-2017 
 ******************************************
 %mem=5000MB
 %Nprocshared=6
 Will use up to    6 processors via shared memory.
 %chk=gwp8_V1_dd_data.chk
 ------------------------------------------
 #P UHF/6-31g* IOP(7/33=1) IOP(7/8=11) Freq
 ------------------------------------------
 1/10=4,30=1,38=1/1,3;
 2/12=2,17=6,18=5,40=1/2;
 3/5=1,6=6,7=1,11=2,16=1,25=1,30=1,71=2,116=2,140=1/1,2,3;
 4//1;
 5/5=2,38=5,98=1/2;
 8/6=4,10=90,11=11/1;
 10/13=10,15=4/2;
 11/6=3,8=1,9=11,15=111,16=1/1,2,10;
 10/6=1/2;
 6/7=2,8=2,9=2,10=2,18=1,28=1/1;
 7/8=11,10=1,25=1,33=1/1,2,3,16;
 1/10=4,30=1/3;
 99//99;
 Leave Link    1 at Sat Mar  4 13:37:53 2017, MaxMem=   655360000 cpu:         0.1
 (Enter /mnt/software/gaussian/g09/l101.exe)
 -----------------
 Distorted Ethanol
 -----------------
 Symbolic Z-matrix:
 Charge =  1 Multiplicity = 2
 6                     0.14994   4.77359  -0.95223 
 9                     1.33182   4.5794   -0.84843 
 9                    -0.35484   5.47326  -0.02764 
 9                    -3.93989  -7.51179   3.60972 
 9                    -0.24942   5.10825  -2.14364 
 
 NAtoms=      5 NQM=        5 NQMF=       0 NMMI=      0 NMMIF=      0
                NMic=       0 NMicF=      0.
                    Isotopes and Nuclear Properties:
 (Nuclear quadrupole moments (NQMom) in fm**2, nuclear magnetic moments (NMagM)
  in nuclear magnetons)

  Atom         1           2           3           4           5
 IAtWgt=          12          19          19          19          19
 AtmWgt=  12.0000000  18.9984033  18.9984033  18.9984033  18.9984033
 NucSpn=           0           1           1           1           1
 AtZEff=   0.0000000   0.0000000   0.0000000   0.0000000   0.0000000
 NQMom=    0.0000000   0.0000000   0.0000000   0.0000000   0.0000000
 NMagM=    0.0000000   2.6288670   2.6288670   2.6288670   2.6288670
 AtZNuc=   6.0000000   9.0000000   9.0000000   9.0000000   9.0000000
 Leave Link  101 at Sat Mar  4 13:37:53 2017, MaxMem=   655360000 cpu:         0.3
 (Enter /mnt/software/gaussian/g09/l103.exe)

 GradGradGradGradGradGradGradGradGradGradGradGradGradGradGradGradGradGrad
 Berny optimization.
 Initialization pass.
 Trust Radius=3.00D-01 FncErr=1.00D-07 GrdErr=1.00D-07
 Number of steps in this run=      2 maximum allowed number of steps=      2.
 GradGradGradGradGradGradGradGradGradGradGradGradGradGradGradGradGradGrad

 Leave Link  103 at Sat Mar  4 13:37:53 2017, MaxMem=   655360000 cpu:         0.1
 (Enter /mnt/software/gaussian/g09/l202.exe)
                          Input orientation:                          
 ---------------------------------------------------------------------
 Center     Atomic      Atomic             Coordinates (Angstroms)
 Number     Number       Type             X           Y           Z
 ---------------------------------------------------------------------
      1          6           0        0.149937    4.773592   -0.952225
      2          9           0        1.331824    4.579402   -0.848430
      3          9           0       -0.354840    5.473264   -0.027643
      4          9           0       -3.939886   -7.511792    3.609720
      5          9           0       -0.249415    5.108255   -2.143636
 ---------------------------------------------------------------------
                    Distance matrix (angstroms):
                    1          2          3          4          5
     1  C    0.000000
     2  F    1.202223   0.000000
     3  F    1.264592   2.077863   0.000000
     4  F   13.728389  13.923469  13.953302   0.000000
     5  F    1.300362   2.111294   2.149831  14.352222   0.000000
 Stoichiometry    CF4(1+,2)
 Framework group  C1[X(CF4)]
 Deg. of freedom     9
 Full point group                 C1      NOp   1
 Largest Abelian subgroup         C1      NOp   1
 Largest concise Abelian subgroup C1      NOp   1
                         Standard orientation:                         
 ---------------------------------------------------------------------
 Center     Atomic      Atomic             Coordinates (Angstroms)
 Number     Number       Type             X           Y           Z
 ---------------------------------------------------------------------
      1          6           0        2.751351   -0.029871   -0.001852
      2          9           0        2.893334   -0.127130    1.187989
      3          9           0        2.920752    1.135900   -0.461713
      4          9           0      -10.977022   -0.027719   -0.022938
      5          9           0        3.328702   -0.961136   -0.702103
 ---------------------------------------------------------------------
 Rotational constants (GHZ):      6.1158763      0.1712062      0.1710811
 Leave Link  202 at Sat Mar  4 13:37:53 2017, MaxMem=   655360000 cpu:         0.0
 (Enter /mnt/software/gaussian/g09/l301.exe)
 Standard basis: 6-31G(d) (6D, 7F)
 Ernie: Thresh=  0.10000D-02 Tol=  0.10000D-05 Strict=F.
 There are    75 symmetry adapted cartesian basis functions of A   symmetry.
 There are    75 symmetry adapted basis functions of A   symmetry.
    75 basis functions,   140 primitive gaussians,    75 cartesian basis functions
    21 alpha electrons       20 beta electrons
       nuclear repulsion energy       140.4276640075 Hartrees.
 IExCor=    0 DFT=F Ex=HF Corr=None ExCW=0 ScaHFX=  1.000000
 ScaDFX=  1.000000  1.000000  1.000000  1.000000 ScalE2=  1.000000  1.000000
 IRadAn=      0 IRanWt=     -1 IRanGd=            0 ICorTp=0 IEmpDi=  4
 NAtoms=    5 NActive=    5 NUniq=    5 SFac= 1.00D+00 NAtFMM=   60 NAOKFM=F Big=F
 Integral buffers will be    131072 words long.
 Raffenetti 2 integral format.
 Two-electron integral symmetry is turned on.
 Leave Link  301 at Sat Mar  4 13:37:53 2017, MaxMem=   655360000 cpu:         0.3
 (Enter /mnt/software/gaussian/g09/l302.exe)
 NPDir=0 NMtPBC=     1 NCelOv=     1 NCel=       1 NClECP=     1 NCelD=      1
         NCelK=      1 NCelE2=     1 NClLst=     1 CellRange=     0.0.
 One-electron integrals computed using PRISM.
 NBasis=    75 RedAO= T EigKep=  3.46D-03  NBF=    75
 NBsUse=    75 1.00D-06 EigRej= -1.00D+00 NBFU=    75
 Leave Link  302 at Sat Mar  4 13:37:53 2017, MaxMem=   655360000 cpu:         0.7
 (Enter /mnt/software/gaussian/g09/l303.exe)
 DipDrv:  MaxL=1.
 Leave Link  303 at Sat Mar  4 13:37:53 2017, MaxMem=   655360000 cpu:         0.1
 (Enter /mnt/software/gaussian/g09/l401.exe)
 ExpMin= 1.69D-01 ExpMax= 7.00D+03 ExpMxC= 1.05D+03 IAcc=1 IRadAn=         1 AccDes= 0.00D+00
 Harris functional with IExCor=  205 and IRadAn=       1 diagonalized for initial guess.
 HarFok:  IExCor=  205 AccDes= 0.00D+00 IRadAn=         1 IDoV= 1 UseB2=F ITyADJ=14
 ICtDFT=  3500011 ScaDFX=  1.000000  1.000000  1.000000  1.000000
 FoFCou: FMM=F IPFlag=           0 FMFlag=      100000 FMFlg1=           0
         NFxFlg=           0 DoJE=T BraDBF=F KetDBF=T FulRan=T
         wScrn=  0.000000 ICntrl=     500 IOpCl=  0 I1Cent=   200000004 NGrid=           0
         NMat0=    1 NMatS0=      1 NMatT0=    0 NMatD0=    1 NMtDS0=    0 NMtDT0=    0
 Petite list used in FoFCou.
 Harris En= -435.014925183855    
 JPrj=0 DoOrth=F DoCkMO=F.
 Initial guess <Sx>= 0.0000 <Sy>= 0.0000 <Sz>= 0.5000 <S**2>= 0.7500 S= 0.5000
 Leave Link  401 at Sat Mar  4 13:37:53 2017, MaxMem=   655360000 cpu:         0.7
 (Enter /mnt/software/gaussian/g09/l502.exe)
 UHF open shell SCF:
 Using DIIS extrapolation, IDIIS=  1040.
 Integral symmetry usage will be decided dynamically.
 Keep R1 and R2 ints in memory in canonical form, NReq=8999583.
 IVT=       36430 IEndB=       36430 NGot=   655360000 MDV=   647198221
 LenX=   647198221 LenY=   647192155
 Requested convergence on RMS density matrix=1.00D-08 within 128 cycles.
 Requested convergence on MAX density matrix=1.00D-06.
 Requested convergence on             energy=1.00D-06.
 No special actions if energy rises.
 FoFCou: FMM=F IPFlag=           0 FMFlag=           0 FMFlg1=           0
         NFxFlg=           0 DoJE=F BraDBF=F KetDBF=F FulRan=T
         wScrn=  0.000000 ICntrl=     600 IOpCl=  0 I1Cent=           0 NGrid=           0
         NMat0=    1 NMatS0=   2850 NMatT0=    0 NMatD0=    1 NMtDS0=    0 NMtDT0=    0
 Symmetry not used in FoFCou.

 Cycle   1  Pass 1  IDiag  1:
 E= -435.036842211832    
 DIIS: error= 7.71D-02 at cycle   1 NSaved=   1.
 NSaved= 1 IEnMin= 1 EnMin= -435.036842211832     IErMin= 1 ErrMin= 7.71D-02
 ErrMax= 7.71D-02  0.00D+00 EMaxC= 1.00D-01 BMatC= 1.02D+00 BMatP= 1.02D+00
 IDIUse=3 WtCom= 2.29D-01 WtEn= 7.71D-01
 Coeff-Com:  0.100D+01
 Coeff-En:   0.100D+01
 Coeff:      0.100D+01
 Gap=     0.483 Goal=   None    Shift=    0.000
 Gap=     0.788 Goal=   None    Shift=    0.000
 GapD=    0.483 DampG=2.000 DampE=0.500 DampFc=1.0000 IDamp=-1.
 RMSDP=3.92D-03 MaxDP=6.39D-02              OVMax= 5.56D-02

 Cycle   2  Pass 1  IDiag  1:
 E= -435.107773098284     Delta-E=       -0.070930886451 Rises=F Damp=F
 DIIS: error= 1.46D-02 at cycle   2 NSaved=   2.
 NSaved= 2 IEnMin= 2 EnMin= -435.107773098284     IErMin= 2 ErrMin= 1.46D-02
 ErrMax= 1.46D-02  0.00D+00 EMaxC= 1.00D-01 BMatC= 6.89D-02 BMatP= 1.02D+00
 IDIUse=3 WtCom= 8.54D-01 WtEn= 1.46D-01
 Coeff-Com:  0.990D-01 0.901D+00
 Coeff-En:   0.000D+00 0.100D+01
 Coeff:      0.845D-01 0.915D+00
 Gap=     0.459 Goal=   None    Shift=    0.000
 Gap=     0.412 Goal=   None    Shift=    0.000
 RMSDP=1.48D-03 MaxDP=2.67D-02 DE=-7.09D-02 OVMax= 4.94D-02

 Cycle   3  Pass 1  IDiag  1:
 E= -435.117945811680     Delta-E=       -0.010172713397 Rises=F Damp=F
 DIIS: error= 6.63D-03 at cycle   3 NSaved=   3.
 NSaved= 3 IEnMin= 3 EnMin= -435.117945811680     IErMin= 3 ErrMin= 6.63D-03
 ErrMax= 6.63D-03  0.00D+00 EMaxC= 1.00D-01 BMatC= 2.10D-02 BMatP= 6.89D-02
 IDIUse=3 WtCom= 9.34D-01 WtEn= 6.63D-02
 Coeff-Com: -0.236D-01 0.332D+00 0.691D+00
 Coeff-En:   0.000D+00 0.000D+00 0.100D+01
 Coeff:     -0.220D-01 0.310D+00 0.712D+00
 Gap=     0.450 Goal=   None    Shift=    0.000
 Gap=     0.402 Goal=   None    Shift=    0.000
 RMSDP=4.82D-04 MaxDP=1.05D-02 DE=-1.02D-02 OVMax= 1.03D-02

 Cycle   4  Pass 1  IDiag  1:
 E= -435.121240008141     Delta-E=       -0.003294196460 Rises=F Damp=F
 DIIS: error= 1.31D-03 at cycle   4 NSaved=   4.
 NSaved= 4 IEnMin= 4 EnMin= -435.121240008141     IErMin= 4 ErrMin= 1.31D-03
 ErrMax= 1.31D-03  0.00D+00 EMaxC= 1.00D-01 BMatC= 3.94D-04 BMatP= 2.10D-02
 IDIUse=3 WtCom= 9.87D-01 WtEn= 1.31D-02
 Coeff-Com: -0.448D-02-0.592D-01-0.452D-01 0.111D+01
 Coeff-En:   0.000D+00 0.000D+00 0.000D+00 0.100D+01
 Coeff:     -0.442D-02-0.584D-01-0.446D-01 0.111D+01
 Gap=     0.450 Goal=   None    Shift=    0.000
 Gap=     0.400 Goal=   None    Shift=    0.000
 RMSDP=1.53D-04 MaxDP=2.18D-03 DE=-3.29D-03 OVMax= 4.52D-03

 Cycle   5  Pass 1  IDiag  1:
 E= -435.121415198517     Delta-E=       -0.000175190376 Rises=F Damp=F
 DIIS: error= 5.92D-04 at cycle   5 NSaved=   5.
 NSaved= 5 IEnMin= 5 EnMin= -435.121415198517     IErMin= 5 ErrMin= 5.92D-04
 ErrMax= 5.92D-04  0.00D+00 EMaxC= 1.00D-01 BMatC= 4.69D-05 BMatP= 3.94D-04
 IDIUse=3 WtCom= 9.94D-01 WtEn= 5.92D-03
 Coeff-Com:  0.368D-02-0.298D-01-0.740D-01-0.105D+00 0.120D+01
 Coeff-En:   0.000D+00 0.000D+00 0.000D+00 0.000D+00 0.100D+01
 Coeff:      0.366D-02-0.296D-01-0.736D-01-0.104D+00 0.120D+01
 Gap=     0.452 Goal=   None    Shift=    0.000
 Gap=     0.401 Goal=   None    Shift=    0.000
 RMSDP=6.48D-05 MaxDP=1.12D-03 DE=-1.75D-04 OVMax= 2.16D-03

 Cycle   6  Pass 1  IDiag  1:
 E= -435.121440783271     Delta-E=       -0.000025584754 Rises=F Damp=F
 DIIS: error= 1.48D-04 at cycle   6 NSaved=   6.
 NSaved= 6 IEnMin= 6 EnMin= -435.121440783271     IErMin= 6 ErrMin= 1.48D-04
 ErrMax= 1.48D-04  0.00D+00 EMaxC= 1.00D-01 BMatC= 3.22D-06 BMatP= 4.69D-05
 IDIUse=3 WtCom= 9.99D-01 WtEn= 1.48D-03
 Coeff-Com:  0.272D-03 0.265D-02 0.230D-02-0.609D-01-0.996D-02 0.107D+01
 Coeff-En:   0.000D+00 0.000D+00 0.000D+00 0.000D+00 0.000D+00 0.100D+01
 Coeff:      0.272D-03 0.265D-02 0.230D-02-0.608D-01-0.994D-02 0.107D+01
 Gap=     0.452 Goal=   None    Shift=    0.000
 Gap=     0.401 Goal=   None    Shift=    0.000
 RMSDP=1.46D-05 MaxDP=2.18D-04 DE=-2.56D-05 OVMax= 3.91D-04

 Cycle   7  Pass 1  IDiag  1:
 E= -435.121442121390     Delta-E=       -0.000001338119 Rises=F Damp=F
 DIIS: error= 4.20D-05 at cycle   7 NSaved=   7.
 NSaved= 7 IEnMin= 7 EnMin= -435.121442121390     IErMin= 7 ErrMin= 4.20D-05
 ErrMax= 4.20D-05  0.00D+00 EMaxC= 1.00D-01 BMatC= 6.63D-07 BMatP= 3.22D-06
 IDIUse=1 WtCom= 1.00D+00 WtEn= 0.00D+00
 Coeff-Com: -0.466D-03 0.510D-02 0.114D-01 0.316D-03-0.179D+00 0.301D+00
 Coeff-Com:  0.861D+00
 Coeff:     -0.466D-03 0.510D-02 0.114D-01 0.316D-03-0.179D+00 0.301D+00
 Coeff:      0.861D+00
 Gap=     0.452 Goal=   None    Shift=    0.000
 Gap=     0.401 Goal=   None    Shift=    0.000
 RMSDP=4.94D-06 MaxDP=7.05D-05 DE=-1.34D-06 OVMax= 1.34D-04

 Cycle   8  Pass 1  IDiag  1:
 E= -435.121442307273     Delta-E=       -0.000000185883 Rises=F Damp=F
 DIIS: error= 1.42D-05 at cycle   8 NSaved=   8.
 NSaved= 8 IEnMin= 8 EnMin= -435.121442307273     IErMin= 8 ErrMin= 1.42D-05
 ErrMax= 1.42D-05  0.00D+00 EMaxC= 1.00D-01 BMatC= 3.11D-08 BMatP= 6.63D-07
 IDIUse=1 WtCom= 1.00D+00 WtEn= 0.00D+00
 Coeff-Com:  0.923D-04-0.135D-02-0.315D-02 0.450D-02 0.427D-01-0.137D+00
 Coeff-Com: -0.223D+00 0.132D+01
 Coeff:      0.923D-04-0.135D-02-0.315D-02 0.450D-02 0.427D-01-0.137D+00
 Coeff:     -0.223D+00 0.132D+01
 Gap=     0.452 Goal=   None    Shift=    0.000
 Gap=     0.401 Goal=   None    Shift=    0.000
 RMSDP=1.89D-06 MaxDP=3.11D-05 DE=-1.86D-07 OVMax= 5.78D-05

 Cycle   9  Pass 1  IDiag  1:
 E= -435.121442325892     Delta-E=       -0.000000018619 Rises=F Damp=F
 DIIS: error= 5.17D-06 at cycle   9 NSaved=   9.
 NSaved= 9 IEnMin= 9 EnMin= -435.121442325892     IErMin= 9 ErrMin= 5.17D-06
 ErrMax= 5.17D-06  0.00D+00 EMaxC= 1.00D-01 BMatC= 2.96D-09 BMatP= 3.11D-08
 IDIUse=1 WtCom= 1.00D+00 WtEn= 0.00D+00
 Coeff-Com:  0.475D-04-0.573D-03-0.130D-02 0.359D-03 0.199D-01-0.386D-01
 Coeff-Com: -0.104D+00 0.131D+00 0.994D+00
 Coeff:      0.475D-04-0.573D-03-0.130D-02 0.359D-03 0.199D-01-0.386D-01
 Coeff:     -0.104D+00 0.131D+00 0.994D+00
 Gap=     0.452 Goal=   None    Shift=    0.000
 Gap=     0.401 Goal=   None    Shift=    0.000
 RMSDP=5.30D-07 MaxDP=7.70D-06 DE=-1.86D-08 OVMax= 1.76D-05

 Cycle  10  Pass 1  IDiag  1:
 E= -435.121442327501     Delta-E=       -0.000000001609 Rises=F Damp=F
 DIIS: error= 1.42D-06 at cycle  10 NSaved=  10.
 NSaved=10 IEnMin=10 EnMin= -435.121442327501     IErMin=10 ErrMin= 1.42D-06
 ErrMax= 1.42D-06  0.00D+00 EMaxC= 1.00D-01 BMatC= 2.77D-10 BMatP= 2.96D-09
 IDIUse=1 WtCom= 1.00D+00 WtEn= 0.00D+00
 Coeff-Com: -0.161D-04 0.225D-03 0.521D-03-0.560D-03-0.738D-02 0.204D-01
 Coeff-Com:  0.352D-01-0.142D+00-0.193D+00 0.129D+01
 Coeff:     -0.161D-04 0.225D-03 0.521D-03-0.560D-03-0.738D-02 0.204D-01
 Coeff:      0.352D-01-0.142D+00-0.193D+00 0.129D+01
 Gap=     0.452 Goal=   None    Shift=    0.000
 Gap=     0.401 Goal=   None    Shift=    0.000
 RMSDP=2.21D-07 MaxDP=3.24D-06 DE=-1.61D-09 OVMax= 7.81D-06

 Cycle  11  Pass 1  IDiag  1:
 E= -435.121442327721     Delta-E=       -0.000000000220 Rises=F Damp=F
 DIIS: error= 3.62D-07 at cycle  11 NSaved=  11.
 NSaved=11 IEnMin=11 EnMin= -435.121442327721     IErMin=11 ErrMin= 3.62D-07
 ErrMax= 3.62D-07  0.00D+00 EMaxC= 1.00D-01 BMatC= 2.69D-11 BMatP= 2.77D-10
 IDIUse=1 WtCom= 1.00D+00 WtEn= 0.00D+00
 Coeff-Com: -0.926D-06 0.637D-05 0.144D-04 0.664D-04-0.351D-03 0.208D-03
 Coeff-Com:  0.824D-03 0.122D-01-0.422D-01-0.184D+00 0.121D+01
 Coeff:     -0.926D-06 0.637D-05 0.144D-04 0.664D-04-0.351D-03 0.208D-03
 Coeff:      0.824D-03 0.122D-01-0.422D-01-0.184D+00 0.121D+01
 Gap=     0.452 Goal=   None    Shift=    0.000
 Gap=     0.401 Goal=   None    Shift=    0.000
 RMSDP=6.30D-08 MaxDP=1.26D-06 DE=-2.20D-10 OVMax= 2.16D-06

 Cycle  12  Pass 1  IDiag  1:
 E= -435.121442327739     Delta-E=       -0.000000000018 Rises=F Damp=F
 DIIS: error= 1.20D-07 at cycle  12 NSaved=  12.
 NSaved=12 IEnMin=12 EnMin= -435.121442327739     IErMin=12 ErrMin= 1.20D-07
 ErrMax= 1.20D-07  0.00D+00 EMaxC= 1.00D-01 BMatC= 5.53D-12 BMatP= 2.69D-11
 IDIUse=1 WtCom= 1.00D+00 WtEn= 0.00D+00
 Coeff-Com:  0.205D-05-0.311D-04-0.701D-04 0.106D-03 0.945D-03-0.283D-02
 Coeff-Com: -0.504D-02 0.244D-01 0.151D-01-0.243D+00 0.342D+00 0.868D+00
 Coeff:      0.205D-05-0.311D-04-0.701D-04 0.106D-03 0.945D-03-0.283D-02
 Coeff:     -0.504D-02 0.244D-01 0.151D-01-0.243D+00 0.342D+00 0.868D+00
 Gap=     0.452 Goal=   None    Shift=    0.000
 Gap=     0.401 Goal=   None    Shift=    0.000
 RMSDP=2.06D-08 MaxDP=2.88D-07 DE=-1.78D-11 OVMax= 7.20D-07

 Cycle  13  Pass 1  IDiag  1:
 E= -435.121442327741     Delta-E=       -0.000000000002 Rises=F Damp=F
 DIIS: error= 1.18D-07 at cycle  13 NSaved=  13.
 NSaved=13 IEnMin=13 EnMin= -435.121442327741     IErMin=13 ErrMin= 1.18D-07
 ErrMax= 1.18D-07  0.00D+00 EMaxC= 1.00D-01 BMatC= 4.35D-13 BMatP= 5.53D-12
 IDIUse=1 WtCom= 1.00D+00 WtEn= 0.00D+00
 Coeff-Com: -0.750D-07 0.161D-05 0.524D-05-0.131D-04-0.532D-04 0.224D-03
 Coeff-Com:  0.321D-03-0.289D-02 0.229D-02 0.386D-01-0.151D+00-0.632D-01
 Coeff-Com:  0.118D+01
 Coeff:     -0.750D-07 0.161D-05 0.524D-05-0.131D-04-0.532D-04 0.224D-03
 Coeff:      0.321D-03-0.289D-02 0.229D-02 0.386D-01-0.151D+00-0.632D-01
 Coeff:      0.118D+01
 Gap=     0.452 Goal=   None    Shift=    0.000
 Gap=     0.401 Goal=   None    Shift=    0.000
 RMSDP=6.63D-09 MaxDP=1.81D-07 DE=-1.93D-12 OVMax= 4.14D-07

 SCF Done:  E(UHF) =  -435.121442328     A.U. after   13 cycles
            NFock= 13  Conv=0.66D-08     -V/T= 2.0029
 <Sx>= 0.0000 <Sy>= 0.0000 <Sz>= 0.5000 <S**2>= 0.7527 S= 0.5013
 <L.S>= 0.000000000000E+00
 KE= 4.338550636817D+02 PE=-1.307963287795D+03 EE= 2.985591177777D+02
 Annihilation of the first spin contaminant:
 S**2 before annihilation     0.7527,   after     0.7500
 Leave Link  502 at Sat Mar  4 13:37:54 2017, MaxMem=   655360000 cpu:         1.9
 (Enter /mnt/software/gaussian/g09/l801.exe)
 Range of M.O.s used for correlation:     1    75
 NBasis=    75 NAE=    21 NBE=    20 NFC=     0 NFV=     0
 NROrb=     75 NOA=    21 NOB=    20 NVA=    54 NVB=    55
 Leave Link  801 at Sat Mar  4 13:37:54 2017, MaxMem=   655360000 cpu:         0.1
 (Enter /mnt/software/gaussian/g09/l1002.exe)
 Minotr:  UHF open shell wavefunction.
          Direct CPHF calculation.
          Differentiating once with respect to electric field.
                with respect to dipole field.
          Electric field/nuclear overlap derivatives assumed to be zero.
          Requested convergence is 1.0D-08 RMS, and 1.0D-07 maximum.
          Secondary convergence is 1.0D-12 RMS, and 1.0D-12 maximum.
          NewPWx=F KeepS1=T KeepF1=T KeepIn=T MapXYZ=F SortEE=F KeepMc=T.
          MDV=     655359806 using IRadAn=       2.
 Keep R1 and R2 ints in memory in canonical form, NReq=8971595.
 FoFCou: FMM=F IPFlag=           0 FMFlag=           0 FMFlg1=           0
         NFxFlg=           0 DoJE=F BraDBF=F KetDBF=F FulRan=T
         wScrn=  0.000000 ICntrl=     600 IOpCl=  0 I1Cent=           0 NGrid=           0
         NMat0=    1 NMatS0=   2850 NMatT0=    0 NMatD0=    1 NMtDS0=    0 NMtDT0=    0
 Symmetry not used in FoFCou.
          Solving linear equations simultaneously, MaxMat=       0.
          There are     3 degrees of freedom in the 1st order CPHF.  IDoFFX=0 NUNeed=     3.
      3 vectors produced by pass  0 Test12= 7.45D-14 3.33D-08 XBig12= 4.61D+00 6.61D-01.
 AX will form     3 AO Fock derivatives at one time.
      3 vectors produced by pass  1 Test12= 7.45D-14 3.33D-08 XBig12= 3.25D-01 1.09D-01.
      3 vectors produced by pass  2 Test12= 7.45D-14 3.33D-08 XBig12= 4.36D-02 5.73D-02.
      3 vectors produced by pass  3 Test12= 7.45D-14 3.33D-08 XBig12= 2.08D-03 1.75D-02.
      3 vectors produced by pass  4 Test12= 7.45D-14 3.33D-08 XBig12= 5.00D-05 3.57D-03.
      3 vectors produced by pass  5 Test12= 7.45D-14 3.33D-08 XBig12= 1.60D-06 3.15D-04.
      3 vectors produced by pass  6 Test12= 7.45D-14 3.33D-08 XBig12= 7.07D-08 8.54D-05.
      3 vectors produced by pass  7 Test12= 7.45D-14 3.33D-08 XBig12= 4.32D-09 5.44D-05.
      3 vectors produced by pass  8 Test12= 7.45D-14 3.33D-08 XBig12= 2.19D-10 3.79D-06.
      3 vectors produced by pass  9 Test12= 7.45D-14 3.33D-08 XBig12= 4.73D-12 5.08D-07.
      3 vectors produced by pass 10 Test12= 7.45D-14 3.33D-08 XBig12= 1.95D-13 9.23D-08.
 InvSVY:  IOpt=1 It=  1 EMax= 6.21D-16
 Solved reduced A of dimension    33 with     3 vectors.
 End of Minotr F.D. properties file   721 does not exist.
 End of Minotr F.D. properties file   722 does not exist.
 End of Minotr F.D. properties file   788 does not exist.
 Leave Link 1002 at Sat Mar  4 13:37:55 2017, MaxMem=   655360000 cpu:         2.8
 (Enter /mnt/software/gaussian/g09/l1101.exe)
 Using compressed storage, NAtomX=     5.
 Will process      6 centers per pass.
 Leave Link 1101 at Sat Mar  4 13:37:55 2017, MaxMem=   655360000 cpu:         0.7
 (Enter /mnt/software/gaussian/g09/l1102.exe)
 Symmetrizing basis deriv contribution to polar:
 IMax=3 JMax=2 DiffMx= 0.00D+00
 Leave Link 1102 at Sat Mar  4 13:37:55 2017, MaxMem=   655360000 cpu:         0.1
 (Enter /mnt/software/gaussian/g09/l1110.exe)
 Forming Gx(P) for the SCF density, NAtomX=     5.
 Integral derivatives from FoFJK, PRISM(SPDF).
 Do as many integral derivatives as possible in FoFJK.
 G2DrvN: MDV=     655359856.
 G2DrvN: will do     6 centers at a time, making    1 passes.
 PxScal for G2LodP:  IOpCl= 1 ISclPx=1 IMOff=     1 NMtTot=     4 NTT=    2850 ScalPx= 1.70D+00
 Calling FoFCou, ICntrl=  3107 FMM=F I1Cent=   0 AccDes= 0.00D+00.
 FoFJK:  IHMeth= 1 ICntrl=    3107 DoSepK=F KAlg= 0 I1Cent=   0 FoldK=F
 IRaf=         0 NMat=   1 IRICut=       1 DoRegI=T DoRafI=F ISym2E= 0.
 FoFCou: FMM=F IPFlag=           0 FMFlag=      100000 FMFlg1=           0
         NFxFlg=           0 DoJE=F BraDBF=F KetDBF=F FulRan=T
         wScrn=  0.000000 ICntrl=    3107 IOpCl=  1 I1Cent=           0 NGrid=           0
         NMat0=    1 NMatS0=      1 NMatT0=    0 NMatD0=    4 NMtDS0=    3 NMtDT0=    0
 Symmetry not used in FoFCou.
 End of G2Drv F.D. properties file   721 does not exist.
 End of G2Drv F.D. properties file   722 does not exist.
 End of G2Drv F.D. properties file   788 does not exist.
 Leave Link 1110 at Sat Mar  4 13:37:55 2017, MaxMem=   655360000 cpu:         1.9
 (Enter /mnt/software/gaussian/g09/l1002.exe)
 Minotr:  UHF open shell wavefunction.
          IDoAtm=11111
          Direct CPHF calculation.
          Differentiating once with respect to electric field.
                with respect to dipole field.
          Differentiating once with respect to nuclear coordinates.
          Requested convergence is 1.0D-08 RMS, and 1.0D-07 maximum.
          Secondary convergence is 1.0D-12 RMS, and 1.0D-12 maximum.
          NewPWx=T KeepS1=F KeepF1=F KeepIn=T MapXYZ=F SortEE=F KeepMc=T.
          MDV=     655359796 using IRadAn=       2.
 Keep R1 and R2 ints in memory in canonical form, NReq=8971710.
 FoFCou: FMM=F IPFlag=           0 FMFlag=           0 FMFlg1=           0
         NFxFlg=           0 DoJE=F BraDBF=F KetDBF=F FulRan=T
         wScrn=  0.000000 ICntrl=     600 IOpCl=  0 I1Cent=           0 NGrid=           0
         NMat0=    1 NMatS0=   2850 NMatT0=    0 NMatD0=    1 NMtDS0=    0 NMtDT0=    0
 Symmetry not used in FoFCou.
          Solving linear equations simultaneously, MaxMat=       0.
          There are    18 degrees of freedom in the 1st order CPHF.  IDoFFX=5 NUNeed=    18.
 Will reuse    3 saved solutions.
     12 vectors produced by pass  0 Test12= 1.24D-14 5.56D-09 XBig12= 1.96D-01 7.99D-02.
 AX will form    12 AO Fock derivatives at one time.
     12 vectors produced by pass  1 Test12= 1.24D-14 5.56D-09 XBig12= 1.58D-02 5.06D-02.
     12 vectors produced by pass  2 Test12= 1.24D-14 5.56D-09 XBig12= 1.50D-03 6.65D-03.
     12 vectors produced by pass  3 Test12= 1.24D-14 5.56D-09 XBig12= 5.40D-05 1.39D-03.
     10 vectors produced by pass  4 Test12= 1.24D-14 5.56D-09 XBig12= 8.11D-07 1.72D-04.
      9 vectors produced by pass  5 Test12= 1.24D-14 5.56D-09 XBig12= 9.69D-09 1.84D-05.
      9 vectors produced by pass  6 Test12= 1.24D-14 5.56D-09 XBig12= 9.80D-11 1.38D-06.
      8 vectors produced by pass  7 Test12= 1.24D-14 5.56D-09 XBig12= 6.18D-13 1.10D-07.
      3 vectors produced by pass  8 Test12= 1.24D-14 5.56D-09 XBig12= 3.38D-15 1.59D-08.
 InvSVY:  IOpt=1 It=  1 EMax= 1.34D-14
 Solved reduced A of dimension    87 with    12 vectors.
 FullF1:  Do perturbations    1 to     3.
 Isotropic polarizability for W=    0.000000       11.90 Bohr**3.
 FullF1:  Do perturbations    1 to     6.
 End of Minotr F.D. properties file   721 does not exist.
 End of Minotr F.D. properties file   722 does not exist.
 End of Minotr F.D. properties file   788 does not exist.
 Leave Link 1002 at Sat Mar  4 13:37:56 2017, MaxMem=   655360000 cpu:         5.0
 (Enter /mnt/software/gaussian/g09/l601.exe)
 Copying SCF densities to generalized density rwf, IOpCl= 1 IROHF=0.

 **********************************************************************

            Population analysis using the SCF density.

 **********************************************************************

 Orbital symmetries:
 Alpha Orbitals:
       Occupied  (A) (A) (A) (A) (A) (A) (A) (A) (A) (A) (A) (A)
                 (A) (A) (A) (A) (A) (A) (A) (A) (A)
       Virtual   (A) (A) (A) (A) (A) (A) (A) (A) (A) (A) (A) (A)
                 (A) (A) (A) (A) (A) (A) (A) (A) (A) (A) (A) (A)
                 (A) (A) (A) (A) (A) (A) (A) (A) (A) (A) (A) (A)
                 (A) (A) (A) (A) (A) (A) (A) (A) (A) (A) (A) (A)
                 (A) (A) (A) (A) (A) (A)
 Beta  Orbitals:
       Occupied  (A) (A) (A) (A) (A) (A) (A) (A) (A) (A) (A) (A)
                 (A) (A) (A) (A) (A) (A) (A) (A)
       Virtual   (A) (A) (A) (A) (A) (A) (A) (A) (A) (A) (A) (A)
                 (A) (A) (A) (A) (A) (A) (A) (A) (A) (A) (A) (A)
                 (A) (A) (A) (A) (A) (A) (A) (A) (A) (A) (A) (A)
                 (A) (A) (A) (A) (A) (A) (A) (A) (A) (A) (A) (A)
                 (A) (A) (A) (A) (A) (A) (A)
 The electronic state is 2-A.
 Alpha  occ. eigenvalues --  -26.76764 -26.74116 -26.72945 -26.43990 -11.96993
 Alpha  occ. eigenvalues --   -2.16458  -2.05380  -2.01679  -1.69373  -1.32650
 Alpha  occ. eigenvalues --   -1.22648  -1.22269  -1.17582  -1.06478  -1.05942
 Alpha  occ. eigenvalues --   -1.03937  -1.02283  -1.01251  -0.86199  -0.75404
 Alpha  occ. eigenvalues --   -0.75404
 Alpha virt. eigenvalues --   -0.30176   0.08476   0.11791   0.13755   0.32985
 Alpha virt. eigenvalues --    0.35655   0.38534   0.42988   0.99235   1.02031
 Alpha virt. eigenvalues --    1.02915   1.03334   1.05808   1.07365   1.27074
 Alpha virt. eigenvalues --    1.28192   1.29656   1.30602   1.31317   1.31971
 Alpha virt. eigenvalues --    1.32611   1.39463   1.39463   1.42077   1.61408
 Alpha virt. eigenvalues --    1.64538   1.73813   1.74526   1.77838   1.81937
 Alpha virt. eigenvalues --    1.82425   1.83033   1.96425   1.98993   2.00162
 Alpha virt. eigenvalues --    2.01439   2.01892   2.01892   2.07193   2.07314
 Alpha virt. eigenvalues --    2.07314   2.46329   2.47893   2.53946   2.80781
 Alpha virt. eigenvalues --    2.86161   3.08658   3.12557   3.17573   3.65972
 Alpha virt. eigenvalues --    4.20387   4.36972   4.46909   4.69587
  Beta  occ. eigenvalues --  -26.76764 -26.74116 -26.72945 -26.39215 -11.96993
  Beta  occ. eigenvalues --   -2.16458  -2.05380  -2.01679  -1.50182  -1.32650
  Beta  occ. eigenvalues --   -1.22648  -1.22269  -1.17582  -1.06478  -1.05942
  Beta  occ. eigenvalues --   -1.03937  -1.02283  -1.01251  -0.70240  -0.70240
  Beta virt. eigenvalues --   -0.30176   0.05480   0.08476   0.11791   0.13755
  Beta virt. eigenvalues --    0.32985   0.35655   0.38534   0.42988   0.99235
  Beta virt. eigenvalues --    1.02031   1.03334   1.05808   1.06145   1.07365
  Beta virt. eigenvalues --    1.27074   1.28192   1.29656   1.30602   1.31317
  Beta virt. eigenvalues --    1.31971   1.41988   1.41988   1.42077   1.54961
  Beta virt. eigenvalues --    1.61408   1.64538   1.73813   1.74526   1.77838
  Beta virt. eigenvalues --    1.81937   1.82425   1.83033   1.96425   1.98993
  Beta virt. eigenvalues --    2.01439   2.07193   2.07987   2.07987   2.10773
  Beta virt. eigenvalues --    2.10773   2.11872   2.46329   2.47893   2.53946
  Beta virt. eigenvalues --    2.80781   2.86161   3.08658   3.12557   3.17573
  Beta virt. eigenvalues --    3.70272   4.20387   4.36972   4.46909   4.69587
          Condensed to atoms (all electrons):
               1          2          3          4          5
     1  C    3.527660   0.423256   0.388503   0.000000   0.371597
     2  F    0.423256   8.689106  -0.038524   0.000000  -0.035252
     3  F    0.388503  -0.038524   8.793098   0.000000  -0.033420
     4  F    0.000000   0.000000   0.000000   9.000000   0.000000
     5  F    0.371597  -0.035252  -0.033420   0.000000   8.837817
          Atomic-Atomic Spin Densities.
               1          2          3          4          5
     1  C    0.000000   0.000000   0.000000   0.000000   0.000000
     2  F    0.000000   0.000000   0.000000   0.000000   0.000000
     3  F    0.000000   0.000000   0.000000   0.000000   0.000000
     4  F    0.000000   0.000000   0.000000   1.000000   0.000000
     5  F    0.000000   0.000000   0.000000   0.000000   0.000000
 Mulliken charges and spin densities:
               1          2
     1  C    1.288984   0.000000
     2  F   -0.038586   0.000000
     3  F   -0.109657   0.000000
     4  F    0.000000   1.000000
     5  F   -0.140742   0.000000
 Sum of Mulliken charges =   1.00000   1.00000
 Mulliken charges and spin densities with hydrogens summed into heavy atoms:
               1          2
     1  C    1.288984   0.000000
     2  F   -0.038586   0.000000
     3  F   -0.109657   0.000000
     4  F    0.000000   1.000000
     5  F   -0.140742   0.000000
 APT charges:
               1
     1  C    1.982684
     2  F   -0.345485
     3  F   -0.327156
     4  F   -0.000001
     5  F   -0.310042
 Sum of APT charges =   1.00000
 APT charges with hydrogens summed into heavy atoms:
               1
     1  C    1.982684
     2  F   -0.345485
     3  F   -0.327156
     4  F   -0.000001
     5  F   -0.310042
 Electronic spatial extent (au):  <R**2>=           5094.8649
 Charge=              1.0000 electrons
 Dipole moment (field-independent basis, Debye):
    X=             12.7904    Y=             -0.1523    Z=              0.2389  Tot=             12.7936
 Quadrupole moment (field-independent basis, Debye-Ang):
   XX=             14.3862   YY=            -21.3543   ZZ=            -21.1064
   XY=             -0.2607   XZ=              0.7873   YZ=             -0.0545
 Traceless Quadrupole moment (field-independent basis, Debye-Ang):
   XX=             23.7443   YY=            -11.9961   ZZ=            -11.7482
   XY=             -0.2607   XZ=              0.7873   YZ=             -0.0545
 Octapole moment (field-independent basis, Debye-Ang**2):
  XXX=             71.4180  YYY=              0.7658  ZZZ=              1.5620  XYY=              2.4772
  XXY=             -0.4879  XXZ=              2.4883  XZZ=              3.0734  YZZ=             -0.1218
  YYZ=             -0.4914  XYZ=             -0.0248
 Hexadecapole moment (field-independent basis, Debye-Ang**3):
 XXXX=          -3384.5459 YYYY=            -68.1788 ZZZZ=            -64.3136 XXXY=             -0.7042
 XXXZ=              8.2470 YYYX=              1.8353 YYYZ=             -0.3889 ZZZX=              4.4747
 ZZZY=             -0.1162 XXYY=           -726.5882 XXZZ=           -724.7602 YYZZ=            -22.3316
 XXYZ=              0.5647 YYXZ=             -2.1275 ZZXY=             -0.7349
 N-N= 1.404276640075D+02 E-N=-1.307963287879D+03  KE= 4.338550636817D+02
  Exact polarizability:   9.727  -0.753  13.205  -0.701   0.064  12.768
 Approx polarizability:   9.769  -0.566  12.265  -0.574   0.051  11.916
                          Isotropic Fermi Contact Couplings
        Atom                 a.u.       MegaHertz       Gauss      10(-4) cm-1
     1  C(13)              0.00000       0.00000       0.00000       0.00000
     2  F(19)              0.00000       0.00000       0.00000       0.00000
     3  F(19)              0.00000       0.00000       0.00000       0.00000
     4  F(19)              0.06926     291.40512     103.98059      97.20228
     5  F(19)              0.00000       0.00000       0.00000       0.00000
 --------------------------------------------------------
       Center         ----  Spin Dipole Couplings  ----
                      3XX-RR        3YY-RR        3ZZ-RR
 --------------------------------------------------------
     1   Atom        0.000115     -0.000058     -0.000058
     2   Atom        0.000109     -0.000055     -0.000054
     3   Atom        0.000108     -0.000054     -0.000055
     4   Atom        5.822916     -2.911458     -2.911458
     5   Atom        0.000100     -0.000050     -0.000050
 --------------------------------------------------------
                        XY            XZ            YZ
 --------------------------------------------------------
     1   Atom        0.000000      0.000000      0.000000
     2   Atom       -0.000001      0.000014      0.000000
     3   Atom        0.000014     -0.000005      0.000000
     4   Atom       -0.000040     -0.000076      0.000000
     5   Atom       -0.000010     -0.000007      0.000000
 --------------------------------------------------------


 ---------------------------------------------------------------------------------
              Anisotropic Spin Dipole Couplings in Principal Axis System
 ---------------------------------------------------------------------------------

       Atom             a.u.   MegaHertz   Gauss  10(-4) cm-1        Axes

              Baa    -0.0001    -0.008    -0.003    -0.003  0.0000  0.9954  0.0962
     1 C(13)  Bbb    -0.0001    -0.008    -0.003    -0.003 -0.0015 -0.0962  0.9954
              Bcc     0.0001     0.015     0.006     0.005  1.0000 -0.0002  0.0015
 
              Baa    -0.0001    -0.028    -0.010    -0.009  0.0000  0.9967  0.0818
     2 F(19)  Bbb    -0.0001    -0.028    -0.010    -0.009 -0.0876 -0.0814  0.9928
              Bcc     0.0001     0.055     0.020     0.018  0.9962 -0.0072  0.0873
 
              Baa    -0.0001    -0.028    -0.010    -0.009  0.0000  0.3527  0.9357
     3 F(19)  Bbb    -0.0001    -0.028    -0.010    -0.009 -0.0894  0.9320 -0.3513
              Bcc     0.0001     0.055     0.020     0.018  0.9960  0.0837 -0.0316
 
              Baa    -2.9115 -1462.209  -521.752  -487.740  0.0000  0.9743  0.2254
     4 F(19)  Bbb    -2.9115 -1462.209  -521.752  -487.740  0.0000 -0.2254  0.9743
              Bcc     5.8229  2924.418  1043.505   975.481  1.0000  0.0000  0.0000
 
              Baa    -0.0001    -0.025    -0.009    -0.008  0.0000 -0.5883  0.8086
     5 F(19)  Bbb    -0.0001    -0.025    -0.009    -0.008  0.0807  0.8060  0.5864
              Bcc     0.0001     0.051     0.018     0.017  0.9967 -0.0653 -0.0475
 

 ---------------------------------------------------------------------------------

 No NMR shielding tensors so no spin-rotation constants.
 Leave Link  601 at Sat Mar  4 13:37:56 2017, MaxMem=   655360000 cpu:         1.3
 (Enter /mnt/software/gaussian/g09/l701.exe)
 Compute integral second derivatives.
 ... and contract with generalized density number  0.
 Entering OneElI...
 Calculate overlap and kinetic energy integrals
    NBasis =  75  MinDer = 2  MaxDer = 2
 Requested accuracy = 0.1000D-12
 PrsmSu:  NPrtUS=   6 ThrOK=T IAlg=1 NPAlg=1 LenDen=           0.
 Prism:   IPart=     0 DynPar=F LinDyn=F Incr=           1.
 PRISM was handed   109212905 working-precision words and   146 shell-pairs
 PRISM was handed   109212905 working-precision words and   146 shell-pairs
 PRISM was handed   109212905 working-precision words and   146 shell-pairs
 PRISM was handed   109212905 working-precision words and   146 shell-pairs
 PRISM was handed   109212905 working-precision words and   146 shell-pairs
 PRISM was handed   109212905 working-precision words and   146 shell-pairs
 IPart=  3 NShTot=          23 NBatch=          11 AvBLen=         2.1
 IPart=  1 NShTot=          29 NBatch=          15 AvBLen=         1.9
 IPart=  0 NShTot=          29 NBatch=          15 AvBLen=         1.9
 IPart=  4 NShTot=          23 NBatch=          11 AvBLen=         2.1
 IPart=  2 NShTot=          27 NBatch=          15 AvBLen=         1.8
 IPart=  5 NShTot=          15 NBatch=          10 AvBLen=         1.5
 PrSmSu:  NxtVal=              7.
 Entering OneElI...
 Calculate potential energy integrals
    NBasis =  75  MinDer = 2  MaxDer = 2
 Requested accuracy = 0.1000D-12
 PrsmSu:  NPrtUS=   6 ThrOK=T IAlg=1 NPAlg=1 LenDen=           0.
 Prism:   IPart=     0 DynPar=F LinDyn=F Incr=           1.
 PRISM was handed   109214667 working-precision words and   143 shell-pairs
 PRISM was handed   109214667 working-precision words and   143 shell-pairs
 PRISM was handed   109214667 working-precision words and   143 shell-pairs
 PRISM was handed   109214667 working-precision words and   143 shell-pairs
 PRISM was handed   109214667 working-precision words and   143 shell-pairs
 PRISM was handed   109214667 working-precision words and   143 shell-pairs
 IPart=  3 NShTot=         120 NBatch=          24 AvBLen=         5.0
 IPart=  1 NShTot=         135 NBatch=          27 AvBLen=         5.0
 IPart=  4 NShTot=         115 NBatch=          23 AvBLen=         5.0
 IPart=  2 NShTot=         120 NBatch=          24 AvBLen=         5.0
 IPart=  0 NShTot=         155 NBatch=          31 AvBLen=         5.0
 IPart=  5 NShTot=          70 NBatch=          14 AvBLen=         5.0
 PrSmSu:  NxtVal=              7.
 Polarizability after L701:
                1             2             3 
      1  0.972650D+01
      2 -0.752952D+00  0.132051D+02
      3 -0.701141D+00  0.638194D-01  0.127676D+02
 Dipole Derivatives after L701:
                 1             2             3             4             5 
      1   0.128246D+01 -0.168249D+00 -0.136897D+00 -0.452859D-01  0.267306D-01
      2  -0.158753D+00  0.227419D+01 -0.545301D-01  0.417887D-01 -0.218289D+00
      3  -0.109273D+00 -0.510204D-01  0.239140D+01 -0.107390D+00  0.273588D-01
                 6             7             8             9            10 
      1   0.845111D-01 -0.821104D-01  0.754018D-01  0.373934D-02 -0.206388D-03
      2   0.788506D-01 -0.897678D-01 -0.617798D+00  0.126054D+00  0.000000D+00
      3  -0.772879D+00  0.618911D-01  0.193544D+00 -0.281560D+00 -0.173551D-05
                11            12            13            14            15 
      1   0.000000D+00 -0.317663D-05 -0.154859D+00  0.661167D-01  0.486493D-01
      2   0.101854D-03  0.255044D-05  0.206732D+00 -0.438204D+00 -0.150377D+00
      3   0.216556D-05  0.102019D-03  0.154774D+00 -0.169884D+00 -0.337064D+00
 Hessian after L701:
                1             2             3             4             5 
      1  0.335114D+02
      2  0.281222D+01  0.167905D+02
      3  0.214791D+01  0.687402D+00  0.152040D+02
      4 -0.140888D+02 -0.263189D+00  0.230122D+01  0.156793D+02
      5 -0.321152D+00 -0.138354D+02 -0.117282D+01  0.484221D+00  0.141267D+02
      6  0.285303D+01 -0.104570D+01  0.157610D+01 -0.199810D+01  0.149624D+01
      7 -0.117474D+02  0.219916D+01 -0.896843D+00 -0.832604D+00  0.394753D-01
      8  0.269692D+01  0.828974D+00 -0.476268D+01 -0.105311D+00  0.138927D+00
      9 -0.110937D+01 -0.491004D+01 -0.995835D+01  0.460979D-01 -0.118793D+01
     10 -0.326262D-03 -0.121484D-02 -0.127760D-02  0.100750D-01 -0.381335D-03
     11  0.834531D-04 -0.286375D-02  0.188724D-04 -0.109348D-03 -0.443201D-02
     12  0.709240D-04  0.178081D-04 -0.288317D-02  0.120163D-02 -0.260670D-04
     13 -0.767487D+01 -0.474698D+01 -0.355100D+01 -0.767946D+00 -0.202163D+00
     14 -0.518807D+01 -0.378118D+01  0.524808D+01 -0.115611D+00 -0.425761D+00
     15 -0.389164D+01  0.526832D+01 -0.681891D+01 -0.350418D+00  0.864536D+00
                6             7             8             9            10 
      6 -0.376752D+01
      7 -0.150333D+00  0.133443D+02
      8 -0.164251D+01 -0.192268D+01 -0.263236D+01
      9  0.864182D+00  0.104559D+01  0.593870D+01  0.993271D+01
     10  0.674338D-02  0.100744D-01  0.601856D-02 -0.216727D-02 -0.306769D-01
     11 -0.464839D-04  0.114634D-02 -0.413063D-02 -0.117108D-03 -0.216634D-03
     12 -0.406623D-02 -0.443340D-03 -0.132317D-03 -0.439276D-02 -0.173110D-03
     13 -0.711342D+00 -0.774317D+00 -0.674948D+00  0.198535D-01  0.108538D-01
     14  0.119202D+01 -0.317101D+00  0.166859D+01  0.159378D+00 -0.420575D-02
     15  0.133130D+01  0.203179D-02  0.466618D+00 -0.834153D+00 -0.312540D-02
               11            12            13            14            15 
     11  0.153367D-01
     12  0.543786D-05  0.153402D-01
     13 -0.903815D-03 -0.656109D-03  0.920627D+01
     14 -0.391030D-02  0.135138D-03  0.562499D+01  0.254226D+01
     15  0.139282D-03 -0.399808D-02  0.424315D+01 -0.659961D+01  0.632576D+01
 Leave Link  701 at Sat Mar  4 13:37:56 2017, MaxMem=   655360000 cpu:         1.0
 (Enter /mnt/software/gaussian/g09/l702.exe)
 L702 exits ... SP integral derivatives will be done elsewhere.
 Leave Link  702 at Sat Mar  4 13:37:56 2017, MaxMem=   655360000 cpu:         0.1
 (Enter /mnt/software/gaussian/g09/l703.exe)
 Compute integral second derivatives, UseDBF=F ICtDFT=           0.
 Integral derivatives from FoFJK, PRISM(SPDF).
 ICntrl=    100127.
 Calling FoFJK, ICntrl=    100127 FMM=F ISym2X=0 I1Cent= 0 IOpClX= 1 NMat=1 NMatS=1 NMatT=0.
 FoFJK:  IHMeth= 1 ICntrl=  100127 DoSepK=F KAlg= 0 I1Cent=   0 FoldK=F
 IRaf=         0 NMat=   1 IRICut=       1 DoRegI=T DoRafI=F ISym2E= 0.
 FoFCou: FMM=F IPFlag=           0 FMFlag=      100000 FMFlg1=         800
         NFxFlg=           0 DoJE=F BraDBF=F KetDBF=F FulRan=T
         wScrn=  0.000000 ICntrl=  100127 IOpCl=  1 I1Cent=           0 NGrid=           0
         NMat0=    1 NMatS0=      1 NMatT0=    0 NMatD0=    1 NMtDS0=    0 NMtDT0=    0
 Symmetry not used in FoFCou.
 FoFCou:  KetSym=F NOpSet=  1 NOpAb=1 NOp=  1.
 FoFCou:  CnvScl= 1.00D+00 Thresh= 1.00D-10 IAcrcy=      10.
 PrismS was handed   655323716 working-precision words and   143 shell-pairs
 FoFCou: LinMIO=F DoNuc=F BraDBF=F KetDBF=F HaveP=T PDBF=F HaveZ=T HaveW=F
         NIJTC =       6 NIJTAt=       0 NIJTCD=       0 NIJTT =       6
         IJTBeg=       1 IJTEnd=       6 KLTBeg=       1 KLTEnd=       6
         IPTBeg=       1 IPTEnd=       6 IPTBCv=       1 IPTECv=       6
         IZTBeg=       1 IZTEnd=       6 IZTBCv=       1 IZTECv=       6
         IWTBeg=       7 IWTEnd=       6 IWTBCv=       7 IWTECv=       6
         INTBeg=       1 INTEnd=       0 IFTBCv=       1 IFTECv=       6
 NCel replicated for PrismC:     1
 CoulSu:  IncDef=  1024 NBBP=          10296 NTPThr=   100 NPartT=    6 Incr=          17 LDynOK=F.
 CoulSu:  NPrtUS=   6 ThrOK=T IAlg=1 NPAlg=1 LenDen=           0 LWGrdD=           0 DoCopy=F.
 Enter PrismC: JobTyp=22 DoJE=F Cont=F.
 PrismC:  IPart=     0 DynPar=F LinDyn=F Incr=          17 UseFst=F UseS4=T IGathr=2.
 PrismC was handed   109213349 working-precision words and   143 shell-pairs
 Enter PrismC: JobTyp=22 DoJE=F Cont=F.
 PrismC was handed   109213349 working-precision words and   143 shell-pairs
 Enter PrismC: JobTyp=22 DoJE=F Cont=F.
 PrismC was handed   109213349 working-precision words and   143 shell-pairs
 Enter PrismC: JobTyp=22 DoJE=F Cont=F.
 PrismC was handed   109213349 working-precision words and   143 shell-pairs
 Enter PrismC: JobTyp=22 DoJE=F Cont=F.
 PrismC was handed   109213349 working-precision words and   143 shell-pairs
 Enter PrismC: JobTyp=22 DoJE=F Cont=F.
 PrismC was handed   109213349 working-precision words and   143 shell-pairs
 IPart=  2 NShTot=        1666 NShNF=        1666 NShFF=           0 NBatch=         176 AvBLen=         9.5
 IPart=  3 NShTot=        1662 NShNF=        1662 NShFF=           0 NBatch=         173 AvBLen=         9.6
 IPart=  1 NShTot=        1657 NShNF=        1657 NShFF=           0 NBatch=         176 AvBLen=         9.4
 IPart=  4 NShTot=        1670 NShNF=        1670 NShFF=           0 NBatch=         173 AvBLen=         9.7
 IPart=  5 NShTot=        1644 NShNF=        1644 NShFF=           0 NBatch=         169 AvBLen=         9.7
 IPart=  0 NShTot=        1784 NShNF=        1784 NShFF=           0 NBatch=         183 AvBLen=         9.7
 CoulSu:  NxtVal=            103.
 Polarizability after L703:
                1             2             3 
      1  0.972650D+01
      2 -0.752952D+00  0.132051D+02
      3 -0.701141D+00  0.638194D-01  0.127676D+02
 Dipole Derivatives after L703:
                 1             2             3             4             5 
      1   0.128246D+01 -0.168249D+00 -0.136897D+00 -0.452859D-01  0.267306D-01
      2  -0.158753D+00  0.227419D+01 -0.545301D-01  0.417887D-01 -0.218289D+00
      3  -0.109273D+00 -0.510204D-01  0.239140D+01 -0.107390D+00  0.273588D-01
                 6             7             8             9            10 
      1   0.845111D-01 -0.821104D-01  0.754018D-01  0.373934D-02 -0.206388D-03
      2   0.788506D-01 -0.897678D-01 -0.617798D+00  0.126054D+00  0.000000D+00
      3  -0.772879D+00  0.618911D-01  0.193544D+00 -0.281560D+00 -0.173551D-05
                11            12            13            14            15 
      1   0.000000D+00 -0.317663D-05 -0.154859D+00  0.661167D-01  0.486493D-01
      2   0.101854D-03  0.255044D-05  0.206732D+00 -0.438204D+00 -0.150377D+00
      3   0.216556D-05  0.102019D-03  0.154774D+00 -0.169884D+00 -0.337064D+00
 Hessian after L703:
                1             2             3             4             5 
      1  0.320970D+00
      2 -0.462473D-01  0.743238D+00
      3  0.262623D-02 -0.782248D-01  0.106412D+01
      4 -0.804347D-01  0.110938D-01 -0.778178D-01  0.312480D-01
      5  0.920387D-02 -0.103648D+00  0.481777D-01 -0.181932D-01  0.114527D+00
      6 -0.501027D-01  0.540537D-01 -0.719315D+00  0.407056D-01 -0.772747D-01
      7 -0.101570D+00 -0.434283D-01  0.192788D-01  0.296125D-01  0.551318D-04
      8 -0.139389D-01 -0.402203D+00  0.113286D+00 -0.867583D-02 -0.224132D-01
      9  0.100146D-01  0.106592D+00 -0.160753D+00  0.468107D-02  0.827456D-01
     10  0.000000D+00  0.000000D+00  0.000000D+00  0.000000D+00  0.000000D+00
     11  0.000000D+00  0.136337D-05  0.000000D+00  0.000000D+00  0.000000D+00
     12  0.000000D+00  0.134307D-05  0.000000D+00  0.000000D+00  0.000000D+00
     13 -0.138965D+00  0.785817D-01  0.559127D-01  0.195742D-01  0.893420D-02
     14  0.509825D-01 -0.237388D+00 -0.832389D-01  0.157749D-01  0.115350D-01
     15  0.374620D-01 -0.824225D-01 -0.184056D+00  0.324309D-01 -0.536485D-01
                6             7             8             9            10 
      6  0.861296D+00
      7 -0.507638D-02  0.538372D-01
      8  0.632194D-01  0.125265D-01  0.508561D+00
      9 -0.635477D-01 -0.195586D-01 -0.171054D+00  0.198227D+00
     10  0.000000D+00  0.000000D+00  0.000000D+00  0.000000D+00  0.000000D+00
     11  0.000000D+00  0.000000D+00  0.000000D+00  0.000000D+00  0.000000D+00
     12  0.000000D+00  0.000000D+00  0.000000D+00  0.000000D+00  0.000000D+00
     13  0.144736D-01  0.181198D-01  0.100883D-01  0.486292D-02  0.000000D+00
     14 -0.399983D-01  0.308469D-01 -0.839443D-01 -0.182838D-01  0.000000D+00
     15 -0.784333D-01  0.535651D-02 -0.545036D-02  0.260733D-01  0.000000D+00
               11            12            13            14            15 
     11  0.000000D+00
     12  0.000000D+00  0.000000D+00
     13  0.000000D+00  0.000000D+00  0.101271D+00
     14  0.000000D+00  0.000000D+00 -0.976043D-01  0.309798D+00
     15  0.000000D+00  0.000000D+00 -0.752495D-01  0.141522D+00  0.236417D+00
 Leave Link  703 at Sat Mar  4 13:37:57 2017, MaxMem=   655360000 cpu:         3.1
 (Enter /mnt/software/gaussian/g09/l716.exe)
 FrcOut:
 IF    =    42 IFX   =    57 IFXYZ =    72
 IFFX  =    87 IFFFX =   207 IFLen =    15
 IFFLen=   120 IFFFLn=     0 IEDerv=   207
 LEDerv=   773 IFroze=  1169 ICStrt= 12633
 Dipole        = 5.03213947D+00-5.99182329D-02 9.39869269D-02
 DipoleDeriv   = 1.28246164D+00-1.58753267D-01-1.09273262D-01
                -1.68248759D-01 2.27418903D+00-5.10203507D-02
                -1.36896569D-01-5.45300780D-02 2.39140065D+00
                -4.52859352D-02 4.17887223D-02-1.07390311D-01
                 2.67306342D-02-2.18288996D-01 2.73588266D-02
                 8.45111198D-02 7.88505567D-02-7.72878600D-01
                -8.21104078D-02-8.97678288D-02 6.18911248D-02
                 7.54018372D-02-6.17798115D-01 1.93543639D-01
                 3.73933601D-03 1.26053618D-01-2.81560494D-01
                -2.06388082D-04-2.75055060D-08-1.73551496D-06
                -4.59604253D-07 1.01853816D-04 2.16555568D-06
                -3.17662509D-06 2.55044225D-06 1.02018590D-04
                -1.54858912D-01 2.06732401D-01 1.54774184D-01
                 6.61167472D-02-4.38203777D-01-1.69884281D-01
                 4.86492894D-02-1.50376647D-01-3.37063578D-01
 Polarizability= 9.72650190D+00-7.52952458D-01 1.32051161D+01
                -7.01140597D-01 6.38194112D-02 1.27676062D+01
 PolarDeriv    =-3.71867425D+00 1.82356302D-01-1.94843095D+00
                 3.25096225D-01-1.63830866D-01-1.59886088D+00
                 6.21071036D-02-1.88962840D+00-9.80886710D-01
                -1.38238878D-01 4.67482828D-01-8.26659628D-02
                -3.94681026D-02-1.78362703D-01 3.66885260D-01
                -1.67157269D+00-2.78058218D-02-6.43218137D-01
                 7.49096669D-01-9.11552527D-02 4.30444129D-01
                 1.24689469D+00-6.52480290D-02 3.09201819D-01
                 4.49196805D-02 8.35841926D-02-3.70436186D-01
                -1.26612656D-01 1.69887740D+00-1.00020699D-01
                 7.63073230D-01-1.13153253D-01 1.26740827D+00
                 3.16684294D-01-1.28289987D-01 5.18915435D+00
                 8.19900270D-01 1.32118391D+00 3.63650849D-01
                -5.24042596D-01-4.12825857D-02 4.09586661D-01
                 6.49959674D-01 3.74985755D-01 5.44087260D+00
                -1.83821239D-01-8.52345877D-01 1.13864715D+00
                -1.50216023D-01-2.12182305D-01-7.36852684D-01
                 2.45899311D-01 1.76230647D+00-1.73340987D+00
                 3.73818813D-04-1.14831581D-05-2.73023557D-04
                 3.25844500D-05 3.25426175D-06-2.74215603D-04
                -8.14577207D-06-2.52113241D-03 5.41510884D-05
                -2.95902964D-04 5.48673461D-06 2.76136799D-07
                -1.57429364D-05-3.44478945D-04 3.43233532D-05
                -2.61133363D-03 2.13822487D-06 1.70565101D-05
                 2.14930349D+00-1.41237347D+00 1.15460899D+00
                -1.04798090D+00 2.70358227D-01 8.80346613D-01
                -7.56978312D-01 1.43357958D+00-4.08960386D+00
                 4.48968677D-01-1.31401984D+00-9.55960769D-01
                -5.73373362D-01 5.04042739D-01-8.97475172D-01
                 1.11160042D+00-1.60621280D+00-2.81254340D+00
 HyperPolar    =-8.24723709D+00 2.14093520D+00-9.89706813D+00
                -6.76578511D+00 2.18569188D+00-1.12395091D+00
                 5.35220135D+00-8.14478822D+00 9.22637181D-01
                -8.67925585D+00
 VibFq2-Diag1:  N=     15 IV=           6 MDV=   655346161 NE2=    43689743
 Full mass-weighted force constant matrix:
 Low frequencies ---   -0.7081   -0.6945   -0.0013   -0.0010    0.0006    1.0443
 Low frequencies ---   17.8051  104.3201  198.7283
 OrtVCM:  Ph=1 IPass= 1 DotMx1= 0.00D+00
 OrtVCM:  IS=    1 I=    1 IndO=    1 Dot= 1.00D+00 DotN= 1.00D+00 ElMax1= 4.65D-01 ElMax1N= 4.65D-01
 OrtVCM:  Ph=2 NNew=    0 IAdd=    2 IPass= 1 DotMx2= 0.00D+00
 OrtVCM:  IS=    1 I=    2 IndO=    2 Dot= 1.00D+00 DotN= 1.00D+00 ElMax1= 4.65D-01 ElMax1N= 4.65D-01
 OrtVCM:  Ph=2 NNew=    0 IAdd=    3 IPass= 1 DotMx2= 0.00D+00
 OrtVCM:  IS=    1 I=    3 IndO=    3 Dot= 1.00D+00 DotN= 1.00D+00 ElMax1= 4.65D-01 ElMax1N= 4.65D-01
 OrtVCM:  Ph=2 NNew=    0 IAdd=    4 IPass= 1 DotMx2= 5.55D-17
 OrtVCM:  IS=    1 I=    4 IndO=    4 Dot= 1.00D+00 DotN= 1.00D+00 ElMax1= 5.70D-01 ElMax1N= 5.70D-01
 OrtVCM:  Ph=2 NNew=    0 IAdd=    5 IPass= 1 DotMx2= 1.86D-15
 OrtVCM:  IS=    1 I=    5 IndO=    5 Dot= 1.00D+00 DotN= 1.00D+00 ElMax1= 8.79D-01 ElMax1N= 8.79D-01
 OrtVCM:  Ph=2 NNew=    0 IAdd=    6 IPass= 1 DotMx2= 2.22D-16
 OrtVCM:  IS=    1 I=    6 IndO=    6 Dot= 1.00D+00 DotN= 1.00D+00 ElMax1= 8.79D-01 ElMax1N= 8.79D-01
 OrtVCM:  Ph=1 IPass= 1 DotMx1= 5.70D-01
 OrtVCM:  Ph=1 IPass= 2 DotMx1= 1.39D-16
 OrtVCM:  IS=    1 I=    1 IndO=    7 Dot= 8.64D-01 DotN= 8.64D-01 ElMax1= 8.64D-01 ElMax1N= 8.64D-01
 OrtVCM:  Ph=2 NNew=    0 IAdd=    2 IPass= 1 DotMx2= 3.65D-04
 OrtVCM:  Ph=2 NNew=    0 IAdd=    2 IPass= 2 DotMx2= 1.05D-18
 OrtVCM:  IS=    1 I=    2 IndO=    8 Dot= 8.32D-01 DotN= 8.32D-01 ElMax1= 8.32D-01 ElMax1N= 8.32D-01
 OrtVCM:  Ph=2 NNew=    0 IAdd=    3 IPass= 1 DotMx2= 2.26D-05
 OrtVCM:  Ph=2 NNew=    0 IAdd=    3 IPass= 2 DotMx2= 3.39D-19
 OrtVCM:  IS=    1 I=    3 IndO=    9 Dot= 8.32D-01 DotN= 8.32D-01 ElMax1= 8.32D-01 ElMax1N= 8.32D-01
 OrtVCM:  Ph=2 NNew=    0 IAdd=    4 IPass= 1 DotMx2= 1.85D-01
 OrtVCM:  Ph=2 NNew=    0 IAdd=    4 IPass= 2 DotMx2= 9.73D-17
 OrtVCM:  IS=    1 I=    4 IndO=   10 Dot= 7.40D-01 DotN= 7.40D-01 ElMax1= 7.40D-01 ElMax1N= 7.40D-01
 OrtVCM:  Ph=2 NNew=    0 IAdd=    5 IPass= 1 DotMx2= 2.33D-01
 OrtVCM:  Ph=2 NNew=    0 IAdd=    5 IPass= 2 DotMx2= 9.71D-17
 OrtVCM:  IS=    1 I=    5 IndO=   11 Dot= 3.51D-01 DotN= 3.51D-01 ElMax1= 3.51D-01 ElMax1N= 3.51D-01
 OrtVCM:  Ph=2 NNew=    0 IAdd=    6 IPass= 1 DotMx2= 2.34D-01
 OrtVCM:  Ph=2 NNew=    0 IAdd=    6 IPass= 2 DotMx2= 2.78D-17
 OrtVCM:  IS=    1 I=    6 IndO=   12 Dot= 6.66D-01 DotN= 6.66D-01 ElMax1= 6.66D-01 ElMax1N= 6.66D-01
 OrtVCM:  Ph=2 NNew=    0 IAdd=    7 IPass= 1 DotMx2= 2.85D-01
 OrtVCM:  Ph=2 NNew=    0 IAdd=    7 IPass= 2 DotMx2= 1.39D-17
 OrtVCM:  IS=    1 I=    7 IndO=   13 Dot= 6.57D-01 DotN= 6.57D-01 ElMax1= 6.57D-01 ElMax1N= 6.57D-01
 OrtVCM:  Ph=2 NNew=    0 IAdd=    8 IPass= 1 DotMx2= 3.37D-01
 OrtVCM:  Ph=2 NNew=    0 IAdd=    8 IPass= 2 DotMx2= 1.33D-16
 OrtVCM:  IS=    1 I=    8 IndO=   14 Dot= 5.09D-01 DotN= 5.09D-01 ElMax1= 5.09D-01 ElMax1N= 5.09D-01
 OrtVCM:  Ph=2 NNew=    0 IAdd=    9 IPass= 1 DotMx2= 5.21D-01
 OrtVCM:  Ph=2 NNew=    0 IAdd=    9 IPass= 2 DotMx2= 1.65D-16
 OrtVCM:  IS=    1 I=    9 IndO=    0 Dot= 1.36D-32 DotN= 1.36D-32 ElMax1= 7.40D-17 ElMax1N= 7.40D-17
 SchOr2:  IPass= 1 Test2A= 1.00D-01 IOff=     0 NDo=     9 NNew=     8
 OrtVCM:  Ph=1 IPass= 1 DotMx1= 4.65D-01
 OrtVCM:  Ph=1 IPass= 2 DotMx1= 1.11D-16
 OrtVCM:  IS=    1 I=    1 IndO=   15 Dot= 4.97D-01 DotN= 4.97D-01 ElMax1= 4.97D-01 ElMax1N= 4.97D-01
 SchOr2:  IPass= 1 Test2A= 1.00D-01 IOff=     9 NDo=     1 NNew=     1
 VibFq2-Diag2:  N=      9 IV=           6 MDV=   655346161 NE2=    72816239
 Dipole derivatives wrt mode   1: -1.74824D+00 -4.44464D-03 -3.71768D-03
 Polarizability derivatives wrt mode          1
                 1             2             3 
      1   0.270020D-04  0.000000D+00 -0.432935D-05
      2   0.000000D+00 -0.207953D-04  0.000000D+00
      3  -0.432935D-05  0.000000D+00 -0.211907D-04
 Vibrational polarizability contributions from mode   1   75431.0993763       0.4875530       0.3411083
 IFr=  0 A012= 0.34D-09 0.15D-07 0.25D-08 Act= 0.18D-07 DepolP= 0.67D+00 DepolU= 0.80D+00
 Dipole derivatives wrt mode   2: -2.99237D-01 -1.44569D-01  5.85680D-01
 Polarizability derivatives wrt mode          2
                 1             2             3 
      1  -0.572705D-02 -0.246123D-01  0.832625D-01
      2  -0.246123D-01  0.101699D-01  0.125126D-01
      3   0.832625D-01  0.125126D-01  0.151309D-01
 Vibrational polarizability contributions from mode   2       3.4913027       0.8149033      13.3745618
 IFr=  0 A012= 0.57D-03 0.14D+00 0.24D-01 Act= 0.17D+00 DepolP= 0.73D+00 DepolU= 0.85D+00
 Dipole derivatives wrt mode   3: -1.08294D-01  3.65448D-01  1.00903D-01
 Polarizability derivatives wrt mode          3
                 1             2             3 
      1  -0.369641D-01  0.893652D-01  0.195918D-01
      2   0.893652D-01  0.320244D-01  0.285754D-01
      3   0.195918D-01  0.285754D-01  0.848821D-02
 Vibrational polarizability contributions from mode   3       0.0081147       0.0924084       0.0070448
 IFr=  0 A012= 0.19D-04 0.19D+00 0.31D-01 Act= 0.22D+00 DepolP= 0.75D+00 DepolU= 0.86D+00
 Dipole derivatives wrt mode   4:  2.29956D-02  1.98244D+00 -3.02682D+00
 Polarizability derivatives wrt mode          4
                 1             2             3 
      1   0.568294D-02 -0.390504D-01  0.455078D-01
      2  -0.390504D-01  0.215931D+00 -0.375349D-01
      3   0.455078D-01 -0.375349D-01 -0.162194D+00
 Vibrational polarizability contributions from mode   4       0.0000366       0.2719231       0.6338984
 IFr=  0 A012= 0.53D-02 0.75D+00 0.12D+00 Act= 0.88D+00 DepolP= 0.72D+00 DepolU= 0.84D+00
 Dipole derivatives wrt mode   5:  6.81597D-01 -2.78825D+00 -1.66438D+00
 Polarizability derivatives wrt mode          5
                 1             2             3 
      1   0.180299D-01 -0.374450D-01 -0.268316D-01
      2  -0.374450D-01  0.767600D-01  0.188795D+00
      3  -0.268316D-01  0.188795D+00 -0.990630D-02
 Vibrational polarizability contributions from mode   5       0.0312851       0.5235334       0.1865456
 IFr=  0 A012= 0.11D-01 0.74D+00 0.12D+00 Act= 0.87D+00 DepolP= 0.70D+00 DepolU= 0.82D+00
 Dipole derivatives wrt mode   6:  8.78991D+00  1.63354D+00  1.49132D+00
 Polarizability derivatives wrt mode          6
                 1             2             3 
      1  -0.224362D+00 -0.401331D-01 -0.154779D-01
      2  -0.401331D-01  0.451654D-01 -0.690305D-02
      3  -0.154779D-01 -0.690305D-02  0.638979D-01
 Vibrational polarizability contributions from mode   6       2.8116700       0.0971080       0.0809352
 IFr=  0 A012= 0.20D-01 0.54D+00 0.90D-01 Act= 0.65D+00 DepolP= 0.63D+00 DepolU= 0.77D+00
 Dipole derivatives wrt mode   7: -6.28097D+00  1.80688D+00  4.43519D+00
 Polarizability derivatives wrt mode          7
                 1             2             3 
      1   0.262595D+00 -0.682196D-01 -0.862874D-01
      2  -0.682196D-01  0.408079D+00  0.164268D-01
      3  -0.862874D-01  0.164268D-01  0.348942D+00
 Vibrational polarizability contributions from mode   7       0.9685331       0.0801528       0.4829323
 IFr=  0 A012= 0.16D+01 0.34D+01 0.57D+00 Act= 0.56D+01 DepolP= 0.29D-01 DepolU= 0.57D-01
 Dipole derivatives wrt mode   8: -2.84948D+00  2.01591D+01  3.35031D+00
 Polarizability derivatives wrt mode          8
                 1             2             3 
      1   0.276587D-01 -0.176859D+00 -0.462742D-01
      2  -0.176859D+00 -0.137722D+00  0.953087D-01
      3  -0.462742D-01  0.953087D-01 -0.492704D-01
 Vibrational polarizability contributions from mode   8       0.1030677       5.1586425       0.1424820
 IFr=  0 A012= 0.38D-01 0.96D+00 0.16D+00 Act= 0.12D+01 DepolP= 0.62D+00 DepolU= 0.76D+00
 Dipole derivatives wrt mode   9: -7.91221D-01 -4.65442D+00  2.12817D+01
 Polarizability derivatives wrt mode          9
                 1             2             3 
      1  -0.260923D-01  0.178423D-01 -0.133411D+00
      2   0.178423D-01  0.395575D-01 -0.490411D-02
      3  -0.133411D+00 -0.490411D-02 -0.184668D+00
 Vibrational polarizability contributions from mode   9       0.0051860       0.1794597       3.7518911
 IFr=  0 A012= 0.44D-01 0.65D+00 0.11D+00 Act= 0.81D+00 DepolP= 0.54D+00 DepolU= 0.70D+00
 Diagonal vibrational polarizability:
    75438.5185722       7.7056842      19.0013995
 Diagonal vibrational hyperpolarizability:
     -134.6598736      -5.3209355      43.4798878
 NorSel:  MapVib=      1      2      3      4      5      6      7      8      9
 Harmonic frequencies (cm**-1), IR intensities (KM/Mole), Raman scattering
 activities (A**4/AMU), depolarization ratios for plane and unpolarized
 incident light, reduced masses (AMU), force constants (mDyne/A),
 and normal coordinates:
                           1         2         3         4         5
                           A         A         A         A         A
       Frequencies ---     1.0442   26.2717  197.2137  623.6544  632.1577
    Reduced masses ---    18.5913   18.8797   18.9144   18.1802   18.3353
   Force constants ---     0.0000    0.0077    0.4334    4.1662    4.3171
    IR Intensities ---     3.0564    0.4535    0.1555   13.0923   11.0090
  Raman Activities ---     0.0000    0.1660    0.2188    0.8765    0.8702
    Depol. (Plane) ---     0.6703    0.7350    0.7496    0.7240    0.6973
    Depol. (Unpol) ---     0.8026    0.8473    0.8569    0.8399    0.8217
 Coord Atom Element:
   1     1     6         -0.24119  -0.06132  -0.03519   0.00030   0.05808
   2     1     6         -0.00061  -0.03439   0.10068   0.18292  -0.25721
   3     1     6         -0.00051   0.10963   0.02518  -0.28888  -0.15882
   1     2     9         -0.24126   0.80373   0.10447   0.05655  -0.09171
   2     2     9         -0.00062   0.05184   0.10633  -0.21490   0.56012
   3     2     9         -0.00051   0.05560   0.01807  -0.41456  -0.10394
   1     3     9         -0.24116  -0.48388   0.63084  -0.07294  -0.09162
   2     3     9         -0.00061  -0.01996   0.08387   0.51792  -0.02345
   3     3     9         -0.00051   0.03818   0.09038   0.14409   0.53421
   1     4     9          0.87595   0.00021   0.00033  -0.00001  -0.00003
   2     4     9          0.00223   0.02645  -0.10533  -0.00551   0.00657
   3     4     9          0.00184  -0.10175  -0.02710   0.00962   0.00384
   1     5     9         -0.24118  -0.28133  -0.71341   0.01621   0.14667
   2     5     9         -0.00061  -0.03661  -0.14846  -0.41305  -0.38077
   3     5     9         -0.00050  -0.06127  -0.09726   0.44331  -0.33379
                           6         7         8         9
                           A         A         A         A
       Frequencies ---   859.9412 1046.9736 1456.0324 1802.3884
    Reduced masses ---    14.1028   16.2955   13.2817   13.4049
   Force constants ---     6.1446   10.5242   16.5900   25.6572
    IR Intensities ---    82.1550   62.3862  425.7354  475.2017
  Raman Activities ---     0.6526    5.5703    1.1633    0.8066
    Depol. (Plane) ---     0.6258    0.0295    0.6176    0.5401
    Depol. (Unpol) ---     0.7698    0.0573    0.7636    0.7014
 Coord Atom Element:
   1     1     6          0.81305  -0.58505  -0.07896   0.02405
   2     1     6          0.14679   0.05623   0.88693  -0.17823
   3     1     6          0.13011   0.20193   0.15480   0.87574
   1     2     9         -0.16641   0.04842  -0.00073  -0.04055
   2     2     9         -0.07293  -0.06751  -0.04498   0.03972
   3     2     9          0.25179   0.38502  -0.10334  -0.42663
   1     3     9         -0.20409   0.08350  -0.02618   0.01118
   2     3     9          0.19977   0.37730  -0.33546   0.08558
   3     3     9         -0.14593  -0.21568   0.10463  -0.06640
   1     4     9          0.00002   0.00000   0.00001   0.00000
   2     4     9         -0.00103  -0.00115  -0.00455   0.00063
   3     4     9         -0.00654  -0.00043  -0.00081  -0.00302
   1     5     9         -0.14306   0.23761   0.07678   0.01417
   2     5     9         -0.21852  -0.34416  -0.17522  -0.01335
   3     5     9         -0.18150  -0.29646  -0.09826  -0.05708
 Harmonic frequencies (cm**-1), IR intensities (KM/Mole), Raman scattering
 activities (A**4/AMU), depolarization ratios for plane and unpolarized
 incident light, reduced masses (AMU), force constants (mDyne/A),
 and normal coordinates:
                      1                      2                      3
                      A                      A                      A
 Frequencies --      1.0442                26.2717               197.2137
 Red. masses --     18.5913                18.8797                18.9144
 Frc consts  --      0.0000                 0.0077                 0.4334
 IR Inten    --      3.0564                 0.4535                 0.1555
 Raman Activ --      0.0000                 0.1660                 0.2188
 Depolar (P) --      0.6703                 0.7350                 0.7496
 Depolar (U) --      0.8026                 0.8473                 0.8569
  Atom  AN      X      Y      Z        X      Y      Z        X      Y      Z
     1   6    -0.24   0.00   0.00    -0.06  -0.03   0.11    -0.04   0.10   0.03
     2   9    -0.24   0.00   0.00     0.80   0.05   0.06     0.10   0.11   0.02
     3   9    -0.24   0.00   0.00    -0.48  -0.02   0.04     0.63   0.08   0.09
     4   9     0.88   0.00   0.00     0.00   0.03  -0.10     0.00  -0.11  -0.03
     5   9    -0.24   0.00   0.00    -0.28  -0.04  -0.06    -0.71  -0.15  -0.10
                      4                      5                      6
                      A                      A                      A
 Frequencies --    623.6544               632.1577               859.9412
 Red. masses --     18.1802                18.3353                14.1028
 Frc consts  --      4.1662                 4.3171                 6.1446
 IR Inten    --     13.0923                11.0090                82.1550
 Raman Activ --      0.8765                 0.8702                 0.6526
 Depolar (P) --      0.7240                 0.6973                 0.6258
 Depolar (U) --      0.8399                 0.8217                 0.7698
  Atom  AN      X      Y      Z        X      Y      Z        X      Y      Z
     1   6     0.00   0.18  -0.29     0.06  -0.26  -0.16     0.81   0.15   0.13
     2   9     0.06  -0.21  -0.41    -0.09   0.56  -0.10    -0.17  -0.07   0.25
     3   9    -0.07   0.52   0.14    -0.09  -0.02   0.53    -0.20   0.20  -0.15
     4   9     0.00  -0.01   0.01     0.00   0.01   0.00     0.00   0.00  -0.01
     5   9     0.02  -0.41   0.44     0.15  -0.38  -0.33    -0.14  -0.22  -0.18
                      7                      8                      9
                      A                      A                      A
 Frequencies --   1046.9736              1456.0324              1802.3884
 Red. masses --     16.2955                13.2817                13.4049
 Frc consts  --     10.5242                16.5900                25.6572
 IR Inten    --     62.3862               425.7354               475.2017
 Raman Activ --      5.5703                 1.1633                 0.8066
 Depolar (P) --      0.0295                 0.6176                 0.5401
 Depolar (U) --      0.0573                 0.7636                 0.7014
  Atom  AN      X      Y      Z        X      Y      Z        X      Y      Z
     1   6    -0.59   0.06   0.20    -0.08   0.89   0.15     0.02  -0.18   0.88
     2   9     0.05  -0.07   0.39     0.00  -0.04  -0.10    -0.04   0.04  -0.43
     3   9     0.08   0.38  -0.22    -0.03  -0.34   0.10     0.01   0.09  -0.07
     4   9     0.00   0.00   0.00     0.00   0.00   0.00     0.00   0.00   0.00
     5   9     0.24  -0.34  -0.30     0.08  -0.18  -0.10     0.01  -0.01  -0.06

 -------------------
 - Thermochemistry -
 -------------------
 Temperature   298.150 Kelvin.  Pressure   1.00000 Atm.
 Atom     1 has atomic number  6 and mass  12.00000
 Atom     2 has atomic number  9 and mass  18.99840
 Atom     3 has atomic number  9 and mass  18.99840
 Atom     4 has atomic number  9 and mass  18.99840
 Atom     5 has atomic number  9 and mass  18.99840
 Molecular mass:    87.99361 amu.
 Principal axes and moments of inertia in atomic units:
                           1         2         3
     Eigenvalues --   295.09119********************
           X            1.00000  -0.00002   0.00000
           Y            0.00002   1.00000   0.00002
           Z            0.00000  -0.00002   1.00000
 This molecule is an asymmetric top.
 Rotational symmetry number  1.
 Rotational temperatures (Kelvin)      0.29352     0.00822     0.00821
 Rotational constants (GHZ):           6.11588     0.17121     0.17108
 Zero-point vibrational energy      39750.0 (Joules/Mol)
                                    9.50047 (Kcal/Mol)
 Warning -- explicit consideration of   3 degrees of freedom as
           vibrations may cause significant error
 Vibrational temperatures:      1.50    37.80   283.75   897.30   909.53
          (Kelvin)           1237.26  1506.36  2094.90  2593.23
 
 Zero-point correction=                           0.015140 (Hartree/Particle)
 Thermal correction to Energy=                    0.020756
 Thermal correction to Enthalpy=                  0.021700
 Thermal correction to Gibbs Free Energy=        -0.023150
 Sum of electronic and zero-point Energies=           -435.106302
 Sum of electronic and thermal Energies=              -435.100686
 Sum of electronic and thermal Enthalpies=            -435.099742
 Sum of electronic and thermal Free Energies=         -435.144592
 
                     E (Thermal)             CV                S
                      KCal/Mol        Cal/Mol-Kelvin    Cal/Mol-Kelvin
 Total                   13.025             14.722             94.395
 Electronic               0.000              0.000              1.377
 Translational            0.889              2.981             39.337
 Rotational               0.889              2.981             31.862
 Vibrational             11.247              8.760             21.819
 Vibration     1          0.592              1.987             12.501
 Vibration     2          0.593              1.985              6.093
 Vibration     3          0.637              1.844              2.159
                       Q            Log10(Q)             Ln(Q)
 Total Bot       0.444787D+11         10.648152         24.518276
 Total V=0       0.409297D+18         17.612039         40.553217
 Vib (Bot)       0.334281D-03         -3.475888         -8.003529
 Vib (Bot)    1  0.198449D+03          2.297649          5.290532
 Vib (Bot)    2  0.788249D+01          0.896664          2.064644
 Vib (Bot)    3  0.101213D+01          0.005237          0.012059
 Vib (V=0)       0.307608D+04          3.487998          8.031412
 Vib (V=0)    1  0.198950D+03          2.298743          5.293052
 Vib (V=0)    2  0.839833D+01          0.924193          2.128033
 Vib (V=0)    3  0.162890D+01          0.211894          0.487904
 Electronic      0.200000D+01          0.301030          0.693147
 Translational   0.324438D+08          7.511132         17.295020
 Rotational      0.205059D+07          6.311879         14.533638
 
                                                          Distorted Ethanol
                                                             IR Spectrum
 
     1                        1                            1                                                                         
     8                        4                            0            8               66                             1             
     0                        5                            4            6               32                             9           2 
     2                        6                            7            0               24                             7           61
 
     X                        X                            X            X               XX                             X           XX
     X                        X                            X            X                                                            
     X                        X                            X            X                                                            
     X                        X                                                                                                      
     X                        X                                                                                                      
     X                        X                                                                                                      
     X                        X                                                                                                      
     X                        X                                                                                                      
     X                        X                                                                                                      
     X                        X                                                                                                      
     X                        X                                                                                                      
     X                        X                                                                                                      
     X                        X                                                                                                      
     X                        X                                                                                                      
     X                        X                                                                                                      
     X                        X                                                                                                      
     X                        X                                                                                                      
     X                        X                                                                                                      
     X                                                                                                                               
     X                                                                                                                               
 
 
                                                          Distorted Ethanol
                                                            Raman Spectrum
 
     1                        1                            1                                                                         
     8                        4                            0            8               66                             1             
     0                        5                            4            6               32                             9           2 
     2                        6                            7            0               24                             7           61
 
     X                        X                            X            X               XX                             X           X 
     X                        X                            X            X               XX                                           
     X                        X                            X                            XX                                           
                              X                            X                                                                         
                                                           X                                                                         
                                                           X                                                                         
                                                           X                                                                         
                                                           X                                                                         
                                                           X                                                                         
                                                           X                                                                         
                                                           X                                                                         
                                                           X                                                                         
                                                           X                                                                         
                                                           X                                                                         
                                                           X                                                                         
                                                           X                                                                         
                                                           X                                                                         
                                                           X                                                                         
                                                           X                                                                         
                                                           X                                                                         
 
 Forces in standard orientation:
 -------------------------------------------------------------------
 Center     Atomic                   Forces (Hartrees/Bohr)
 Number     Number              X              Y              Z
 -------------------------------------------------------------------
      1        6          -0.179570025   -0.018049839    0.060663620
      2        9           0.048397089    0.015493395   -0.029179389
      3        9           0.053767523    0.043592269   -0.002400760
      4        9           0.000004024   -0.000000012    0.000000035
      5        9           0.077401390   -0.041035813   -0.029083506
 -------------------------------------------------------------------
 ***** Axes restored to original set *****
 Rotating derivatives, DoTrsp=F IDiff=-2 LEDeriv=    772 LFDPrp=       0 LDFDPr=       0.
 -------------------------------------------------------------------
 Center     Atomic                   Forces (Hartrees/Bohr)
 Number     Number              X              Y              Z
 -------------------------------------------------------------------
      1        6          -0.006209541    0.182071817   -0.055340406
      2        9           0.014935574   -0.056134792    0.007718420
      3        9          -0.009235565   -0.065089736   -0.021795108
      4        9          -0.000001227   -0.000003590    0.000001341
      5        9           0.000510759   -0.060843699    0.069415753
 -------------------------------------------------------------------
 Cartesian Forces:  Max     0.182071817 RMS     0.059443410
 Z-matrix is all fixed cartesians, so copy forces.
 Force constants in Cartesian coordinates: 
                1             2             3             4             5 
      1  0.101485D+01
      2 -0.213713D+00  0.404964D+00
      3  0.215477D-01  0.897868D-01  0.708516D+00
      4 -0.703307D+00  0.129868D+00 -0.597192D-01  0.819572D+00
      5  0.102002D+00 -0.952609D-01  0.455336D-02 -0.189929D+00  0.747603D-01
      6 -0.550208D-01  0.731260D-02 -0.104829D+00  0.695976D-01 -0.230858D-02
      7 -0.169253D+00  0.692662D-01  0.933225D-01 -0.688547D-01  0.593465D-01
      8  0.859886D-01 -0.192728D+00 -0.145857D+00  0.421008D-01  0.995208D-03
      9  0.102893D+00 -0.120777D+00 -0.302544D+00  0.400964D-01 -0.278668D-01
     10  0.000000D+00  0.000000D+00  0.130325D-05  0.000000D+00  0.000000D+00
     11  0.000000D+00  0.000000D+00  0.000000D+00  0.000000D+00  0.000000D+00
     12  0.000000D+00  0.000000D+00  0.140084D-05  0.000000D+00  0.000000D+00
     13 -0.142291D+00  0.145786D-01 -0.551523D-01 -0.474103D-01  0.285805D-01
     14  0.257229D-01 -0.116974D+00  0.515169D-01  0.179600D-01  0.195053D-01
     15 -0.694201D-01  0.236772D-01 -0.301144D+00 -0.499748D-01  0.256218D-01
                6             7             8             9            10 
      6  0.112738D+00
      7  0.560026D-01  0.209933D+00
      8 -0.263538D-01 -0.130314D+00  0.173849D+00
      9  0.115111D-01 -0.152059D+00  0.178762D+00  0.376843D+00
     10  0.000000D+00  0.000000D+00  0.000000D+00  0.000000D+00  0.000000D+00
     11  0.000000D+00  0.000000D+00  0.000000D+00  0.000000D+00  0.000000D+00
     12  0.000000D+00  0.000000D+00  0.000000D+00  0.000000D+00  0.000000D+00
     13 -0.705793D-01  0.281743D-01  0.222471D-02  0.907008D-02  0.000000D+00
     14  0.213499D-01  0.170084D-02  0.178838D-01 -0.301180D-01  0.000000D+00
     15 -0.194192D-01  0.273379D-02 -0.655024D-02 -0.858093D-01  0.000000D+00
               11            12            13            14            15 
     11  0.000000D+00
     12  0.000000D+00  0.000000D+00
     13  0.000000D+00  0.000000D+00  0.161527D+00
     14  0.000000D+00  0.000000D+00 -0.453839D-01  0.795845D-01
     15  0.000000D+00  0.000000D+00  0.116662D+00 -0.427487D-01  0.406373D+00
 Final forces over variables, Energy=-4.35121442D+02:
 -6.20954122D-03 1.49355740D-02-9.23556486D-03-1.22710177D-06
  5.10759196D-04 1.82071817D-01-5.61347923D-02-6.50897357D-02
 -3.58963161D-06-6.08436991D-02-5.53404062D-02 7.71841970D-03
 -2.17951080D-02 1.34146350D-06 6.94157530D-02
 Leave Link  716 at Sat Mar  4 13:37:57 2017, MaxMem=   655360000 cpu:         0.2
 (Enter /mnt/software/gaussian/g09/l103.exe)

 GradGradGradGradGradGradGradGradGradGradGradGradGradGradGradGradGradGrad
 Berny optimization.
 Search for a local minimum.
 Step number   1 out of a maximum of    2
 All quantities printed in internal units (Hartrees-Bohrs-Radians)
 Second derivative matrix not updated -- analytic derivatives used.
 The second derivative matrix:
                          X1        Y1        Z1        X2        Y2
           X1           1.01485
           Y1          -0.21371   0.40496
           Z1           0.02155   0.08979   0.70852
           X2          -0.70331   0.12987  -0.05972   0.81957
           Y2           0.10200  -0.09526   0.00455  -0.18993   0.07476
           Z2          -0.05502   0.00731  -0.10483   0.06960  -0.00231
           X3          -0.16925   0.06927   0.09332  -0.06885   0.05935
           Y3           0.08599  -0.19273  -0.14586   0.04210   0.00100
           Z3           0.10289  -0.12078  -0.30254   0.04010  -0.02787
           X4           0.00000   0.00000   0.00000   0.00000   0.00000
           Y4           0.00000   0.00000   0.00000   0.00000   0.00000
           Z4           0.00000   0.00000   0.00000   0.00000   0.00000
           X5          -0.14229   0.01458  -0.05515  -0.04741   0.02858
           Y5           0.02572  -0.11697   0.05152   0.01796   0.01951
           Z5          -0.06942   0.02368  -0.30114  -0.04997   0.02562
                          Z2        X3        Y3        Z3        X4
           Z2           0.11274
           X3           0.05600   0.20993
           Y3          -0.02635  -0.13031   0.17385
           Z3           0.01151  -0.15206   0.17876   0.37684
           X4           0.00000   0.00000   0.00000   0.00000   0.00000
           Y4           0.00000   0.00000   0.00000   0.00000   0.00000
           Z4           0.00000   0.00000   0.00000   0.00000   0.00000
           X5          -0.07058   0.02817   0.00222   0.00907   0.00000
           Y5           0.02135   0.00170   0.01788  -0.03012   0.00000
           Z5          -0.01942   0.00273  -0.00655  -0.08581   0.00000
                          Y4        Z4        X5        Y5        Z5
           Y4           0.00000
           Z4           0.00000   0.00000
           X5           0.00000   0.00000   0.16153
           Y5           0.00000   0.00000  -0.04538   0.07958
           Z5           0.00000   0.00000   0.11666  -0.04275   0.40637
 ITU=  0
     Eigenvalues ---    0.00000   0.00049   0.02787   0.26788   0.27710
     Eigenvalues ---    0.39041   0.71737   1.11269   1.72047
 Quadratic step=2.247D+01 exceeds max=3.000D-01 adjusted using Lamda=-2.890D-01.
 Angle between NR and scaled steps=  81.64 degrees.
 Angle between quadratic step and forces=  15.44 degrees.
 Linear search not attempted -- first point.
 TrRot= -0.002087 -0.009181  0.002537  0.738856  0.000042 -0.738916
 Variable       Old X    -DE/DX   Delta X   Delta X   Delta X     New X
                                 (Linear)    (Quad)   (Total)
    X1        0.28334  -0.00621   0.00000   0.04935   0.04776   0.33110
    Y1        9.02078   0.18207   0.00000   0.24838   0.23913   9.25991
    Z1       -1.79944  -0.05534   0.00000  -0.06650  -0.06423  -1.86368
    X2        2.51678   0.01494   0.00000   0.00082  -0.00080   2.51598
    Y2        8.65382  -0.05613   0.00000  -0.08952  -0.09890   8.55492
    Z2       -1.60330   0.00772   0.00000   0.00794   0.01016  -1.59314
    X3       -0.67055  -0.00924   0.00000  -0.03416  -0.03564  -0.70619
    Y3       10.34297  -0.06509   0.00000  -0.06071  -0.06985  10.27312
    Z3       -0.05224  -0.02180   0.00000  -0.01636  -0.01409  -0.06633
    X4       -7.44531   0.00000   0.00000   0.00465   0.00193  -7.44338
    Y4      -14.19523   0.00000   0.00000   0.00837  -0.00018 -14.19541
    Z4        6.82138   0.00000   0.00000  -0.00296   0.00020   6.82159
    X5       -0.47133   0.00051   0.00000  -0.01160  -0.01324  -0.48457
    Y5        9.65320  -0.06084   0.00000  -0.06094  -0.07020   9.58300
    Z5       -4.05088   0.06942   0.00000   0.06567   0.06795  -3.98293
         Item               Value     Threshold  Converged?
 Maximum Force            0.182072     0.000450     NO 
 RMS     Force            0.059443     0.000300     NO 
 Maximum Displacement     0.239132     0.001800     NO 
 RMS     Displacement     0.077265     0.001200     NO 
 Predicted change in Energy=-4.629664D-02
 GradGradGradGradGradGradGradGradGradGradGradGradGradGradGradGradGradGrad

 Leave Link  103 at Sat Mar  4 13:37:57 2017, MaxMem=   655360000 cpu:         0.1
 (Enter /mnt/software/gaussian/g09/l9999.exe)

 Test job not archived.
 1\1\GINC-TP-LINUX1\Freq\UHF\6-31G(d)\C1F4(1+,2)\THOMAS\04-Mar-2017\0\\
 #P UHF/6-31g* IOP(7/33=1) IOP(7/8=11) Freq\\Distorted Ethanol\\1,2\C,0
 .149937,4.773592,-0.952225\F,1.331824,4.579402,-0.84843\F,-0.35484,5.4
 73264,-0.027643\F,-3.939886,-7.511792,3.60972\F,-0.249415,5.108255,-2.
 143636\\Version=ES64L-G09RevD.01\State=2-A\HF=-435.1214423\S2=0.752672
 \S2-1=0.\S2A=0.750003\RMSD=6.629e-09\RMSF=5.944e-02\ZeroPoint=0.01514\
 Thermal=0.0207563\Dipole=1.5870402,4.4603539,-1.7092096\DipoleDeriv=2.
 243454,-0.4215774,0.0612362,-0.3968845,1.4381985,0.1570809,0.0517287,0
 .1442203,2.2663988,-0.721968,0.2824593,-0.0759345,0.0855188,-0.0929803
 ,-0.0215536,-0.0535488,-0.0011178,-0.2215053,-0.2793837,0.0973632,0.09
 86317,0.2067682,-0.2167655,-0.2607675,0.1767421,-0.1298215,-0.4853198,
 0.0000731,-0.0000834,0.0000335,-0.0000823,-0.0001448,0.0000908,0.00003
 25,0.0000904,0.0000691,-0.2421754,0.0418383,-0.0839668,0.1046798,-0.12
 8308,0.1251494,-0.1749545,-0.0133713,-0.5596429\Polar=12.143117,-1.361
 3176,10.1741365,0.2616728,0.3377243,13.3819706\PolarDeriv=-1.8853727,-
 1.2506807,-0.2922788,0.2150501,0.0346301,-0.1745265,-1.1091386,0.00772
 52,-3.6473967,-0.0083774,0.0917899,-2.0494319,0.099789,-0.0276938,-0.0
 529399,-0.0546817,-1.9658907,1.3824707,5.0864823,-0.5352901,0.9039206,
 0.2585516,0.0731329,1.3502005,-0.4176624,1.37007,-0.2116659,0.0234789,
 0.0328399,0.0744361,0.194565,0.0327317,-0.0496916,1.6693264,-0.3925884
 ,0.4280272,-1.7794437,1.1701113,-0.4812742,1.3035959,-0.447669,-0.4891
 033,0.9371977,-0.8366507,2.5621201,-0.1966934,1.4395441,1.270102,0.700
 812,-0.3484562,0.8977944,-0.7749588,1.5043426,4.0015263,-0.0014206,-0.
 0018597,0.0010612,0.0005863,-0.0007328,0.0003371,0.0001596,0.0005615,-
 0.0006003,-0.0004628,-0.0006396,0.0002943,-0.0002388,-0.0007427,-0.001
 3415,-0.0005037,-0.0017969,0.0016878,-1.4202453,0.6177192,-0.1314288,-
 1.7777839,0.3406389,-0.6869078,0.5894438,-0.5417059,1.2975428,0.182054
 6,-1.5635342,0.7045995,-0.9949272,0.344161,-0.7938214,-0.8391822,0.855
 9334,-5.813712\HyperPolar=-13.677381,-3.2423695,2.6870381,-10.4270445,
 -0.3127443,0.2588347,-2.3170391,2.4890762,-10.9852767,7.7288241\PG=C01
  [X(C1F4)]\NImag=0\\1.01485137,-0.21371307,0.40496365,0.02154773,0.089
 78679,0.70851619,-0.70330742,0.12986831,-0.05971920,0.81957234,0.10200
 191,-0.09526091,0.00455336,-0.18992907,0.07476031,-0.05502079,0.007312
 60,-0.10482935,0.06959765,-0.00230858,0.11273787,-0.16925317,0.0692661
 9,0.09332247,-0.06885472,0.05934648,0.05600263,0.20993334,0.08598856,-
 0.19272848,-0.14585749,0.04210079,0.00099521,-0.02635380,-0.13031355,0
 .17384942,0.10289313,-0.12077719,-0.30254412,0.04009637,-0.02786680,0.
 01151105,-0.15205915,0.17876202,0.37684267,0.00000030,-0.00000004,0.00
 000130,0.00000005,0.00000015,-0.00000018,0.00000025,-0.00000051,-0.000
 00043,-0.00000020,-0.00000030,-0.00000058,0.00000047,-0.00000005,0.000
 00008,-0.00000011,0.00000004,0.00000004,-0.00000003,0.00000024,0.00000
 043,0.00000003,0.00000058,0.00000140,0.00000003,0.00000020,-0.00000036
 ,0.00000026,-0.00000050,-0.00000029,-0.00000008,-0.00000027,-0.0000001
 8,-0.14229108,0.01457861,-0.05515230,-0.04741026,0.02858053,-0.0705793
 1,0.02817429,0.00222471,0.00907008,-0.00000041,0.00000007,-0.00000023,
 0.16152745,0.02572290,-0.11697368,0.05151687,0.01796002,0.01950531,0.0
 2134989,0.00170084,0.01788382,-0.03011800,0.00000016,0.00000002,-0.000
 00002,-0.04538393,0.07958454,-0.06942009,0.02367722,-0.30114412,-0.049
 97485,0.02562182,-0.01941921,0.00273379,-0.00655024,-0.08580931,-0.000
 00061,-0.00000006,-0.00000057,0.11666177,-0.04274874,0.40637321\\0.006
 20954,-0.18207182,0.05534041,-0.01493557,0.05613479,-0.00771842,0.0092
 3556,0.06508974,0.02179511,0.00000123,0.00000359,-0.00000134,-0.000510
 76,0.06084370,-0.06941575\\\@


 IF GOD HAD MEANT MAN TO SEE THE SUN RISE, HE
 WOULD HAVE SCHEDULED IT FOR A LATER HOUR.
 Job cpu time:       0 days  0 hours  0 minutes 21.1 seconds.
 File lengths (MBytes):  RWF=     12 Int=      0 D2E=      0 Chk=      2 Scr=      1
 Normal termination of Gaussian 09 at Sat Mar  4 13:37:57 2017.
