 Entering Gaussian System, Link 0=g09
 Input=/home/thomas/cf4/DD-vMCG/dd_data/gwp9_V1_dd_data.com
 Output=/home/thomas/cf4/DD-vMCG/dd_data/gwp9_V1_dd_data.log
 Initial command:
 /mnt/software/gaussian/g09/l1.exe "/scratch/Gau-31774.inp" -scrdir="/scratch/"
 Entering Link 1 = /mnt/software/gaussian/g09/l1.exe PID=     31777.
  
 Copyright (c) 1988,1990,1992,1993,1995,1998,2003,2009,2013,
            Gaussian, Inc.  All Rights Reserved.
  
 This is part of the Gaussian(R) 09 program.  It is based on
 the Gaussian(R) 03 system (copyright 2003, Gaussian, Inc.),
 the Gaussian(R) 98 system (copyright 1998, Gaussian, Inc.),
 the Gaussian(R) 94 system (copyright 1995, Gaussian, Inc.),
 the Gaussian 92(TM) system (copyright 1992, Gaussian, Inc.),
 the Gaussian 90(TM) system (copyright 1990, Gaussian, Inc.),
 the Gaussian 88(TM) system (copyright 1988, Gaussian, Inc.),
 the Gaussian 86(TM) system (copyright 1986, Carnegie Mellon
 University), and the Gaussian 82(TM) system (copyright 1983,
 Carnegie Mellon University). Gaussian is a federally registered
 trademark of Gaussian, Inc.
  
 This software contains proprietary and confidential information,
 including trade secrets, belonging to Gaussian, Inc.
  
 This software is provided under written license and may be
 used, copied, transmitted, or stored only in accord with that
 written license.
  
 The following legend is applicable only to US Government
 contracts under FAR:
  
                    RESTRICTED RIGHTS LEGEND
  
 Use, reproduction and disclosure by the US Government is
 subject to restrictions as set forth in subparagraphs (a)
 and (c) of the Commercial Computer Software - Restricted
 Rights clause in FAR 52.227-19.
  
 Gaussian, Inc.
 340 Quinnipiac St., Bldg. 40, Wallingford CT 06492
  
  
 ---------------------------------------------------------------
 Warning -- This program may not be used in any manner that
 competes with the business of Gaussian, Inc. or will provide
 assistance to any competitor of Gaussian, Inc.  The licensee
 of this program is prohibited from giving any competitor of
 Gaussian, Inc. access to this program.  By using this program,
 the user acknowledges that Gaussian, Inc. is engaged in the
 business of creating and licensing software in the field of
 computational chemistry and represents and warrants to the
 licensee that it is not a competitor of Gaussian, Inc. and that
 it will not use this program in any manner prohibited above.
 ---------------------------------------------------------------
  

 Cite this work as:
 Gaussian 09, Revision D.01,
 M. J. Frisch, G. W. Trucks, H. B. Schlegel, G. E. Scuseria, 
 M. A. Robb, J. R. Cheeseman, G. Scalmani, V. Barone, B. Mennucci, 
 G. A. Petersson, H. Nakatsuji, M. Caricato, X. Li, H. P. Hratchian, 
 A. F. Izmaylov, J. Bloino, G. Zheng, J. L. Sonnenberg, M. Hada, 
 M. Ehara, K. Toyota, R. Fukuda, J. Hasegawa, M. Ishida, T. Nakajima, 
 Y. Honda, O. Kitao, H. Nakai, T. Vreven, J. A. Montgomery, Jr., 
 J. E. Peralta, F. Ogliaro, M. Bearpark, J. J. Heyd, E. Brothers, 
 K. N. Kudin, V. N. Staroverov, T. Keith, R. Kobayashi, J. Normand, 
 K. Raghavachari, A. Rendell, J. C. Burant, S. S. Iyengar, J. Tomasi, 
 M. Cossi, N. Rega, J. M. Millam, M. Klene, J. E. Knox, J. B. Cross, 
 V. Bakken, C. Adamo, J. Jaramillo, R. Gomperts, R. E. Stratmann, 
 O. Yazyev, A. J. Austin, R. Cammi, C. Pomelli, J. W. Ochterski, 
 R. L. Martin, K. Morokuma, V. G. Zakrzewski, G. A. Voth, 
 P. Salvador, J. J. Dannenberg, S. Dapprich, A. D. Daniels, 
 O. Farkas, J. B. Foresman, J. V. Ortiz, J. Cioslowski, 
 and D. J. Fox, Gaussian, Inc., Wallingford CT, 2013.
 
 ******************************************
 Gaussian 09:  ES64L-G09RevD.01 24-Apr-2013
                 4-Mar-2017 
 ******************************************
 %mem=5000MB
 %Nprocshared=6
 Will use up to    6 processors via shared memory.
 %chk=gwp9_V1_dd_data.chk
 ------------------------------------------
 #P UHF/6-31g* IOP(7/33=1) IOP(7/8=11) Freq
 ------------------------------------------
 1/10=4,30=1,38=1/1,3;
 2/12=2,17=6,18=5,40=1/2;
 3/5=1,6=6,7=1,11=2,16=1,25=1,30=1,71=2,116=2,140=1/1,2,3;
 4//1;
 5/5=2,38=5,98=1/2;
 8/6=4,10=90,11=11/1;
 10/13=10,15=4/2;
 11/6=3,8=1,9=11,15=111,16=1/1,2,10;
 10/6=1/2;
 6/7=2,8=2,9=2,10=2,18=1,28=1/1;
 7/8=11,10=1,25=1,33=1/1,2,3,16;
 1/10=4,30=1/3;
 99//99;
 Leave Link    1 at Sat Mar  4 13:41:52 2017, MaxMem=   655360000 cpu:         0.2
 (Enter /mnt/software/gaussian/g09/l101.exe)
 -----------------
 Distorted Ethanol
 -----------------
 Symbolic Z-matrix:
 Charge =  1 Multiplicity = 2
 6                     0.83078   4.56232  -1.33705 
 9                     1.63101   5.49378  -1.51614 
 9                     0.14041   4.62716  -0.22998 
 9                    -5.82884  -6.50002   4.52826 
 9                     0.18804   4.25555  -2.42573 
 
 NAtoms=      5 NQM=        5 NQMF=       0 NMMI=      0 NMMIF=      0
                NMic=       0 NMicF=      0.
                    Isotopes and Nuclear Properties:
 (Nuclear quadrupole moments (NQMom) in fm**2, nuclear magnetic moments (NMagM)
  in nuclear magnetons)

  Atom         1           2           3           4           5
 IAtWgt=          12          19          19          19          19
 AtmWgt=  12.0000000  18.9984033  18.9984033  18.9984033  18.9984033
 NucSpn=           0           1           1           1           1
 AtZEff=   0.0000000   0.0000000   0.0000000   0.0000000   0.0000000
 NQMom=    0.0000000   0.0000000   0.0000000   0.0000000   0.0000000
 NMagM=    0.0000000   2.6288670   2.6288670   2.6288670   2.6288670
 AtZNuc=   6.0000000   9.0000000   9.0000000   9.0000000   9.0000000
 Leave Link  101 at Sat Mar  4 13:41:52 2017, MaxMem=   655360000 cpu:         0.4
 (Enter /mnt/software/gaussian/g09/l103.exe)

 GradGradGradGradGradGradGradGradGradGradGradGradGradGradGradGradGradGrad
 Berny optimization.
 Initialization pass.
 Trust Radius=3.00D-01 FncErr=1.00D-07 GrdErr=1.00D-07
 Number of steps in this run=      2 maximum allowed number of steps=      2.
 GradGradGradGradGradGradGradGradGradGradGradGradGradGradGradGradGradGrad

 Leave Link  103 at Sat Mar  4 13:41:52 2017, MaxMem=   655360000 cpu:         0.1
 (Enter /mnt/software/gaussian/g09/l202.exe)
                          Input orientation:                          
 ---------------------------------------------------------------------
 Center     Atomic      Atomic             Coordinates (Angstroms)
 Number     Number       Type             X           Y           Z
 ---------------------------------------------------------------------
      1          6           0        0.830779    4.562320   -1.337046
      2          9           0        1.631012    5.493778   -1.516135
      3          9           0        0.140405    4.627156   -0.229976
      4          9           0       -5.828842   -6.500015    4.528255
      5          9           0        0.188044    4.255547   -2.425728
 ---------------------------------------------------------------------
                    Distance matrix (angstroms):
                    1          2          3          4          5
     1  C    0.000000
     2  F    1.240991   0.000000
     3  F    1.306302   2.151081   0.000000
     4  F   14.181945  15.363435  13.493947   0.000000
     5  F    1.300941   2.107779   2.227485  14.150721   0.000000
 Stoichiometry    CF4(1+,2)
 Framework group  C1[X(CF4)]
 Deg. of freedom     9
 Full point group                 C1      NOp   1
 Largest Abelian subgroup         C1      NOp   1
 Largest concise Abelian subgroup C1      NOp   1
                         Standard orientation:                         
 ---------------------------------------------------------------------
 Center     Atomic      Atomic             Coordinates (Angstroms)
 Number     Number       Type             X           Y           Z
 ---------------------------------------------------------------------
      1          6           0        2.961150   -0.006537   -0.204685
      2          9           0        4.134984   -0.345331   -0.422378
      3          9           0        2.235169   -0.890038    0.426823
      4          9           0      -11.220027    0.009574   -0.057956
      5          9           0        2.875775    1.230154    0.189969
 ---------------------------------------------------------------------
 Rotational constants (GHZ):      9.3294882      0.1639861      0.1619906
 Leave Link  202 at Sat Mar  4 13:41:52 2017, MaxMem=   655360000 cpu:         0.0
 (Enter /mnt/software/gaussian/g09/l301.exe)
 Standard basis: 6-31G(d) (6D, 7F)
 Ernie: Thresh=  0.10000D-02 Tol=  0.10000D-05 Strict=F.
 There are    75 symmetry adapted cartesian basis functions of A   symmetry.
 There are    75 symmetry adapted basis functions of A   symmetry.
    75 basis functions,   140 primitive gaussians,    75 cartesian basis functions
    21 alpha electrons       20 beta electrons
       nuclear repulsion energy       137.3824742627 Hartrees.
 IExCor=    0 DFT=F Ex=HF Corr=None ExCW=0 ScaHFX=  1.000000
 ScaDFX=  1.000000  1.000000  1.000000  1.000000 ScalE2=  1.000000  1.000000
 IRadAn=      0 IRanWt=     -1 IRanGd=            0 ICorTp=0 IEmpDi=  4
 NAtoms=    5 NActive=    5 NUniq=    5 SFac= 1.00D+00 NAtFMM=   60 NAOKFM=F Big=F
 Integral buffers will be    131072 words long.
 Raffenetti 2 integral format.
 Two-electron integral symmetry is turned on.
 Leave Link  301 at Sat Mar  4 13:41:52 2017, MaxMem=   655360000 cpu:         0.3
 (Enter /mnt/software/gaussian/g09/l302.exe)
 NPDir=0 NMtPBC=     1 NCelOv=     1 NCel=       1 NClECP=     1 NCelD=      1
         NCelK=      1 NCelE2=     1 NClLst=     1 CellRange=     0.0.
 One-electron integrals computed using PRISM.
 NBasis=    75 RedAO= T EigKep=  3.72D-03  NBF=    75
 NBsUse=    75 1.00D-06 EigRej= -1.00D+00 NBFU=    75
 Leave Link  302 at Sat Mar  4 13:41:52 2017, MaxMem=   655360000 cpu:         0.7
 (Enter /mnt/software/gaussian/g09/l303.exe)
 DipDrv:  MaxL=1.
 Leave Link  303 at Sat Mar  4 13:41:52 2017, MaxMem=   655360000 cpu:         0.1
 (Enter /mnt/software/gaussian/g09/l401.exe)
 ExpMin= 1.69D-01 ExpMax= 7.00D+03 ExpMxC= 1.05D+03 IAcc=1 IRadAn=         1 AccDes= 0.00D+00
 Harris functional with IExCor=  205 and IRadAn=       1 diagonalized for initial guess.
 HarFok:  IExCor=  205 AccDes= 0.00D+00 IRadAn=         1 IDoV= 1 UseB2=F ITyADJ=14
 ICtDFT=  3500011 ScaDFX=  1.000000  1.000000  1.000000  1.000000
 FoFCou: FMM=F IPFlag=           0 FMFlag=      100000 FMFlg1=           0
         NFxFlg=           0 DoJE=T BraDBF=F KetDBF=T FulRan=T
         wScrn=  0.000000 ICntrl=     500 IOpCl=  0 I1Cent=   200000004 NGrid=           0
         NMat0=    1 NMatS0=      1 NMatT0=    0 NMatD0=    1 NMtDS0=    0 NMtDT0=    0
 Petite list used in FoFCou.
 Harris En= -435.021135051186    
 JPrj=0 DoOrth=F DoCkMO=F.
 Initial guess <Sx>= 0.0000 <Sy>= 0.0000 <Sz>= 0.5000 <S**2>= 0.7500 S= 0.5000
 Leave Link  401 at Sat Mar  4 13:41:52 2017, MaxMem=   655360000 cpu:         0.7
 (Enter /mnt/software/gaussian/g09/l502.exe)
 UHF open shell SCF:
 Using DIIS extrapolation, IDIIS=  1040.
 Integral symmetry usage will be decided dynamically.
 Keep R1 and R2 ints in memory in canonical form, NReq=8999507.
 IVT=       36430 IEndB=       36430 NGot=   655360000 MDV=   647198221
 LenX=   647198221 LenY=   647192155
 Requested convergence on RMS density matrix=1.00D-08 within 128 cycles.
 Requested convergence on MAX density matrix=1.00D-06.
 Requested convergence on             energy=1.00D-06.
 No special actions if energy rises.
 FoFCou: FMM=F IPFlag=           0 FMFlag=           0 FMFlg1=           0
         NFxFlg=           0 DoJE=F BraDBF=F KetDBF=F FulRan=T
         wScrn=  0.000000 ICntrl=     600 IOpCl=  0 I1Cent=           0 NGrid=           0
         NMat0=    1 NMatS0=   2850 NMatT0=    0 NMatD0=    1 NMtDS0=    0 NMtDT0=    0
 Symmetry not used in FoFCou.

 Cycle   1  Pass 1  IDiag  1:
 E= -435.025823924113    
 DIIS: error= 7.71D-02 at cycle   1 NSaved=   1.
 NSaved= 1 IEnMin= 1 EnMin= -435.025823924113     IErMin= 1 ErrMin= 7.71D-02
 ErrMax= 7.71D-02  0.00D+00 EMaxC= 1.00D-01 BMatC= 1.05D+00 BMatP= 1.05D+00
 IDIUse=3 WtCom= 2.29D-01 WtEn= 7.71D-01
 Coeff-Com:  0.100D+01
 Coeff-En:   0.100D+01
 Coeff:      0.100D+01
 Gap=     0.463 Goal=   None    Shift=    0.000
 Gap=     0.788 Goal=   None    Shift=    0.000
 GapD=    0.463 DampG=2.000 DampE=0.500 DampFc=1.0000 IDamp=-1.
 RMSDP=3.99D-03 MaxDP=6.64D-02              OVMax= 6.41D-02

 Cycle   2  Pass 1  IDiag  1:
 E= -435.100245344965     Delta-E=       -0.074421420851 Rises=F Damp=F
 DIIS: error= 1.59D-02 at cycle   2 NSaved=   2.
 NSaved= 2 IEnMin= 2 EnMin= -435.100245344965     IErMin= 2 ErrMin= 1.59D-02
 ErrMax= 1.59D-02  0.00D+00 EMaxC= 1.00D-01 BMatC= 8.09D-02 BMatP= 1.05D+00
 IDIUse=3 WtCom= 8.41D-01 WtEn= 1.59D-01
 Coeff-Com:  0.114D+00 0.886D+00
 Coeff-En:   0.000D+00 0.100D+01
 Coeff:      0.963D-01 0.904D+00
 Gap=     0.448 Goal=   None    Shift=    0.000
 Gap=     0.401 Goal=   None    Shift=    0.000
 RMSDP=1.61D-03 MaxDP=3.04D-02 DE=-7.44D-02 OVMax= 5.59D-02

 Cycle   3  Pass 1  IDiag  1:
 E= -435.112201676941     Delta-E=       -0.011956331977 Rises=F Damp=F
 DIIS: error= 6.55D-03 at cycle   3 NSaved=   3.
 NSaved= 3 IEnMin= 3 EnMin= -435.112201676941     IErMin= 3 ErrMin= 6.55D-03
 ErrMax= 6.55D-03  0.00D+00 EMaxC= 1.00D-01 BMatC= 2.50D-02 BMatP= 8.09D-02
 IDIUse=3 WtCom= 9.35D-01 WtEn= 6.55D-02
 Coeff-Com: -0.224D-01 0.336D+00 0.686D+00
 Coeff-En:   0.000D+00 0.000D+00 0.100D+01
 Coeff:     -0.210D-01 0.314D+00 0.707D+00
 Gap=     0.437 Goal=   None    Shift=    0.000
 Gap=     0.389 Goal=   None    Shift=    0.000
 RMSDP=5.25D-04 MaxDP=1.17D-02 DE=-1.20D-02 OVMax= 1.22D-02

 Cycle   4  Pass 1  IDiag  1:
 E= -435.116201821071     Delta-E=       -0.004000144129 Rises=F Damp=F
 DIIS: error= 1.37D-03 at cycle   4 NSaved=   4.
 NSaved= 4 IEnMin= 4 EnMin= -435.116201821071     IErMin= 4 ErrMin= 1.37D-03
 ErrMax= 1.37D-03  0.00D+00 EMaxC= 1.00D-01 BMatC= 4.65D-04 BMatP= 2.50D-02
 IDIUse=3 WtCom= 9.86D-01 WtEn= 1.37D-02
 Coeff-Com: -0.555D-02-0.579D-01-0.418D-01 0.111D+01
 Coeff-En:   0.000D+00 0.000D+00 0.000D+00 0.100D+01
 Coeff:     -0.548D-02-0.571D-01-0.412D-01 0.110D+01
 Gap=     0.437 Goal=   None    Shift=    0.000
 Gap=     0.388 Goal=   None    Shift=    0.000
 RMSDP=1.67D-04 MaxDP=2.00D-03 DE=-4.00D-03 OVMax= 5.49D-03

 Cycle   5  Pass 1  IDiag  1:
 E= -435.116418657768     Delta-E=       -0.000216836697 Rises=F Damp=F
 DIIS: error= 5.48D-04 at cycle   5 NSaved=   5.
 NSaved= 5 IEnMin= 5 EnMin= -435.116418657768     IErMin= 5 ErrMin= 5.48D-04
 ErrMax= 5.48D-04  0.00D+00 EMaxC= 1.00D-01 BMatC= 5.74D-05 BMatP= 4.65D-04
 IDIUse=3 WtCom= 9.95D-01 WtEn= 5.48D-03
 Coeff-Com:  0.404D-02-0.302D-01-0.765D-01-0.139D+00 0.124D+01
 Coeff-En:   0.000D+00 0.000D+00 0.000D+00 0.000D+00 0.100D+01
 Coeff:      0.401D-02-0.301D-01-0.761D-01-0.139D+00 0.124D+01
 Gap=     0.440 Goal=   None    Shift=    0.000
 Gap=     0.388 Goal=   None    Shift=    0.000
 RMSDP=7.57D-05 MaxDP=1.11D-03 DE=-2.17D-04 OVMax= 2.79D-03

 Cycle   6  Pass 1  IDiag  1:
 E= -435.116452518195     Delta-E=       -0.000033860427 Rises=F Damp=F
 DIIS: error= 1.19D-04 at cycle   6 NSaved=   6.
 NSaved= 6 IEnMin= 6 EnMin= -435.116452518195     IErMin= 6 ErrMin= 1.19D-04
 ErrMax= 1.19D-04  0.00D+00 EMaxC= 1.00D-01 BMatC= 3.34D-06 BMatP= 5.74D-05
 IDIUse=3 WtCom= 9.99D-01 WtEn= 1.19D-03
 Coeff-Com:  0.994D-04 0.401D-02 0.602D-02-0.484D-01-0.758D-01 0.111D+01
 Coeff-En:   0.000D+00 0.000D+00 0.000D+00 0.000D+00 0.000D+00 0.100D+01
 Coeff:      0.993D-04 0.401D-02 0.602D-02-0.483D-01-0.757D-01 0.111D+01
 Gap=     0.440 Goal=   None    Shift=    0.000
 Gap=     0.388 Goal=   None    Shift=    0.000
 RMSDP=1.59D-05 MaxDP=2.22D-04 DE=-3.39D-05 OVMax= 5.48D-04

 Cycle   7  Pass 1  IDiag  1:
 E= -435.116454054500     Delta-E=       -0.000001536304 Rises=F Damp=F
 DIIS: error= 3.51D-05 at cycle   7 NSaved=   7.
 NSaved= 7 IEnMin= 7 EnMin= -435.116454054500     IErMin= 7 ErrMin= 3.51D-05
 ErrMax= 3.51D-05  0.00D+00 EMaxC= 1.00D-01 BMatC= 7.22D-07 BMatP= 3.34D-06
 IDIUse=1 WtCom= 1.00D+00 WtEn= 0.00D+00
 Coeff-Com: -0.494D-03 0.514D-02 0.115D-01 0.495D-02-0.184D+00 0.342D+00
 Coeff-Com:  0.821D+00
 Coeff:     -0.494D-03 0.514D-02 0.115D-01 0.495D-02-0.184D+00 0.342D+00
 Coeff:      0.821D+00
 Gap=     0.440 Goal=   None    Shift=    0.000
 Gap=     0.388 Goal=   None    Shift=    0.000
 RMSDP=4.91D-06 MaxDP=8.15D-05 DE=-1.54D-06 OVMax= 1.58D-04

 Cycle   8  Pass 1  IDiag  1:
 E= -435.116454249304     Delta-E=       -0.000000194805 Rises=F Damp=F
 DIIS: error= 1.06D-05 at cycle   8 NSaved=   8.
 NSaved= 8 IEnMin= 8 EnMin= -435.116454249304     IErMin= 8 ErrMin= 1.06D-05
 ErrMax= 1.06D-05  0.00D+00 EMaxC= 1.00D-01 BMatC= 3.52D-08 BMatP= 7.22D-07
 IDIUse=1 WtCom= 1.00D+00 WtEn= 0.00D+00
 Coeff-Com:  0.904D-04-0.126D-02-0.304D-02 0.296D-02 0.425D-01-0.147D+00
 Coeff-Com: -0.180D+00 0.129D+01
 Coeff:      0.904D-04-0.126D-02-0.304D-02 0.296D-02 0.425D-01-0.147D+00
 Coeff:     -0.180D+00 0.129D+01
 Gap=     0.440 Goal=   None    Shift=    0.000
 Gap=     0.388 Goal=   None    Shift=    0.000
 RMSDP=1.93D-06 MaxDP=2.22D-05 DE=-1.95D-07 OVMax= 6.68D-05

 Cycle   9  Pass 1  IDiag  1:
 E= -435.116454269527     Delta-E=       -0.000000020222 Rises=F Damp=F
 DIIS: error= 4.65D-06 at cycle   9 NSaved=   9.
 NSaved= 9 IEnMin= 9 EnMin= -435.116454269527     IErMin= 9 ErrMin= 4.65D-06
 ErrMax= 4.65D-06  0.00D+00 EMaxC= 1.00D-01 BMatC= 3.47D-09 BMatP= 3.52D-08
 IDIUse=1 WtCom= 1.00D+00 WtEn= 0.00D+00
 Coeff-Com:  0.516D-04-0.589D-03-0.137D-02-0.171D-03 0.212D-01-0.459D-01
 Coeff-Com: -0.999D-01 0.142D+00 0.985D+00
 Coeff:      0.516D-04-0.589D-03-0.137D-02-0.171D-03 0.212D-01-0.459D-01
 Coeff:     -0.999D-01 0.142D+00 0.985D+00
 Gap=     0.440 Goal=   None    Shift=    0.000
 Gap=     0.388 Goal=   None    Shift=    0.000
 RMSDP=5.56D-07 MaxDP=7.26D-06 DE=-2.02D-08 OVMax= 2.09D-05

 Cycle  10  Pass 1  IDiag  1:
 E= -435.116454271463     Delta-E=       -0.000000001937 Rises=F Damp=F
 DIIS: error= 3.95D-06 at cycle  10 NSaved=  10.
 NSaved=10 IEnMin=10 EnMin= -435.116454271463     IErMin=10 ErrMin= 3.95D-06
 ErrMax= 3.95D-06  0.00D+00 EMaxC= 1.00D-01 BMatC= 4.44D-10 BMatP= 3.47D-09
 IDIUse=1 WtCom= 1.00D+00 WtEn= 0.00D+00
 Coeff-Com: -0.173D-04 0.227D-03 0.535D-03-0.298D-03-0.785D-02 0.226D-01
 Coeff-Com:  0.318D-01-0.136D+00-0.219D+00 0.131D+01
 Coeff:     -0.173D-04 0.227D-03 0.535D-03-0.298D-03-0.785D-02 0.226D-01
 Coeff:      0.318D-01-0.136D+00-0.219D+00 0.131D+01
 Gap=     0.440 Goal=   None    Shift=    0.000
 Gap=     0.388 Goal=   None    Shift=    0.000
 RMSDP=2.64D-07 MaxDP=5.53D-06 DE=-1.94D-09 OVMax= 1.48D-05

 Cycle  11  Pass 1  IDiag  1:
 E= -435.116454271951     Delta-E=       -0.000000000487 Rises=F Damp=F
 DIIS: error= 3.95D-06 at cycle  11 NSaved=  11.
 NSaved=11 IEnMin=11 EnMin= -435.116454271951     IErMin=11 ErrMin= 3.95D-06
 ErrMax= 3.95D-06  0.00D+00 EMaxC= 1.00D-01 BMatC= 1.82D-10 BMatP= 4.44D-10
 IDIUse=1 WtCom= 1.00D+00 WtEn= 0.00D+00
 Coeff-Com:  0.238D-05-0.378D-04-0.900D-04 0.128D-03 0.120D-02-0.412D-02
 Coeff-Com: -0.570D-02 0.382D-01 0.447D-02-0.455D+00 0.142D+01
 Coeff:      0.238D-05-0.378D-04-0.900D-04 0.128D-03 0.120D-02-0.412D-02
 Coeff:     -0.570D-02 0.382D-01 0.447D-02-0.455D+00 0.142D+01
 Gap=     0.440 Goal=   None    Shift=    0.000
 Gap=     0.388 Goal=   None    Shift=    0.000
 RMSDP=1.65D-07 MaxDP=5.80D-06 DE=-4.87D-10 OVMax= 1.60D-05

 Cycle  12  Pass 1  IDiag  1:
 E= -435.116454272241     Delta-E=       -0.000000000290 Rises=F Damp=F
 DIIS: error= 3.95D-06 at cycle  12 NSaved=  12.
 NSaved=12 IEnMin=12 EnMin= -435.116454272241     IErMin=12 ErrMin= 3.95D-06
 ErrMax= 3.95D-06  0.00D+00 EMaxC= 1.00D-01 BMatC= 1.58D-10 BMatP= 1.82D-10
 IDIUse=1 WtCom= 1.00D+00 WtEn= 0.00D+00
 Coeff-Com:  0.164D-05-0.231D-04-0.515D-04 0.460D-04 0.742D-03-0.225D-02
 Coeff-Com: -0.334D-02 0.165D-01 0.164D-01-0.168D+00 0.192D+00 0.948D+00
 Coeff:      0.164D-05-0.231D-04-0.515D-04 0.460D-04 0.742D-03-0.225D-02
 Coeff:     -0.334D-02 0.165D-01 0.164D-01-0.168D+00 0.192D+00 0.948D+00
 Gap=     0.440 Goal=   None    Shift=    0.000
 Gap=     0.388 Goal=   None    Shift=    0.000
 RMSDP=1.04D-07 MaxDP=4.11D-06 DE=-2.90D-10 OVMax= 1.13D-05

 Cycle  13  Pass 1  IDiag  1:
 E= -435.116454272432     Delta-E=       -0.000000000191 Rises=F Damp=F
 DIIS: error= 3.95D-06 at cycle  13 NSaved=  13.
 NSaved=13 IEnMin=13 EnMin= -435.116454272432     IErMin=13 ErrMin= 3.95D-06
 ErrMax= 3.95D-06  0.00D+00 EMaxC= 1.00D-01 BMatC= 1.55D-10 BMatP= 1.58D-10
 IDIUse=1 WtCom= 1.00D+00 WtEn= 0.00D+00
 Coeff-Com: -0.103D-06 0.186D-05 0.642D-05-0.114D-04-0.723D-04 0.291D-03
 Coeff-Com:  0.321D-03-0.309D-02 0.163D-02 0.454D-01-0.202D+00 0.178D+00
 Coeff-Com:  0.979D+00
 Coeff:     -0.103D-06 0.186D-05 0.642D-05-0.114D-04-0.723D-04 0.291D-03
 Coeff:      0.321D-03-0.309D-02 0.163D-02 0.454D-01-0.202D+00 0.178D+00
 Coeff:      0.979D+00
 Gap=     0.440 Goal=   None    Shift=    0.000
 Gap=     0.388 Goal=   None    Shift=    0.000
 RMSDP=1.11D-07 MaxDP=4.43D-06 DE=-1.91D-10 OVMax= 1.22D-05

 Cycle  14  Pass 1  IDiag  1:
 E= -435.116454272635     Delta-E=       -0.000000000203 Rises=F Damp=F
 DIIS: error= 3.95D-06 at cycle  14 NSaved=  14.
 NSaved=14 IEnMin=14 EnMin= -435.116454272635     IErMin=14 ErrMin= 3.95D-06
 ErrMax= 3.95D-06  0.00D+00 EMaxC= 1.00D-01 BMatC= 1.55D-10 BMatP= 1.55D-10
 IDIUse=1 WtCom= 1.00D+00 WtEn= 0.00D+00
 Coeff-Com: -0.816D-07 0.111D-05 0.200D-05-0.151D-05-0.298D-04 0.902D-04
 Coeff-Com:  0.126D-03-0.567D-03-0.143D-02 0.470D-02 0.216D-01-0.118D+00
 Coeff-Com: -0.168D+00 0.126D+01
 Coeff:     -0.816D-07 0.111D-05 0.200D-05-0.151D-05-0.298D-04 0.902D-04
 Coeff:      0.126D-03-0.567D-03-0.143D-02 0.470D-02 0.216D-01-0.118D+00
 Coeff:     -0.168D+00 0.126D+01
 Gap=     0.440 Goal=   None    Shift=    0.000
 Gap=     0.388 Goal=   None    Shift=    0.000
 RMSDP=1.30D-07 MaxDP=5.22D-06 DE=-2.03D-10 OVMax= 1.43D-05

 Cycle  15  Pass 1  IDiag  1:
 E= -435.116454272878     Delta-E=       -0.000000000243 Rises=F Damp=F
 DIIS: error= 3.95D-06 at cycle  15 NSaved=  15.
 NSaved=15 IEnMin=15 EnMin= -435.116454272878     IErMin=15 ErrMin= 3.95D-06
 ErrMax= 3.95D-06  0.00D+00 EMaxC= 1.00D-01 BMatC= 1.55D-10 BMatP= 1.55D-10
 IDIUse=1 WtCom= 1.00D+00 WtEn= 0.00D+00
 Coeff-Com:  0.194D-06-0.269D-05-0.599D-05 0.604D-05 0.809D-04-0.268D-03
 Coeff-Com: -0.348D-03 0.209D-02 0.246D-02-0.238D-01 0.189D-01 0.191D+00
 Coeff-Com:  0.324D-01-0.268D+01 0.346D+01
 Coeff:      0.194D-06-0.269D-05-0.599D-05 0.604D-05 0.809D-04-0.268D-03
 Coeff:     -0.348D-03 0.209D-02 0.246D-02-0.238D-01 0.189D-01 0.191D+00
 Coeff:      0.324D-01-0.268D+01 0.346D+01
 Gap=     0.440 Goal=   None    Shift=    0.000
 Gap=     0.388 Goal=   None    Shift=    0.000
 RMSDP=3.74D-07 MaxDP=1.50D-05 DE=-2.43D-10 OVMax= 4.11D-05

 Cycle  16  Pass 1  IDiag  1:
 E= -435.116454273567     Delta-E=       -0.000000000689 Rises=F Damp=F
 DIIS: error= 3.95D-06 at cycle  16 NSaved=  16.
 NSaved=16 IEnMin=16 EnMin= -435.116454273567     IErMin=16 ErrMin= 3.95D-06
 ErrMax= 3.95D-06  0.00D+00 EMaxC= 1.00D-01 BMatC= 1.55D-10 BMatP= 1.55D-10
 IDIUse=1 WtCom= 1.00D+00 WtEn= 0.00D+00
 Large coefficients: NSaved= 16 BigCof=    0.00 CofMax=   10.00 Det=-4.81D-16
 Inversion failed.  Reducing to 15 matrices.
 Large coefficients: NSaved= 15 BigCof=   24.55 CofMax=   10.00 Det=-5.87D-16
 Inversion failed.  Reducing to 14 matrices.
 Large coefficients: NSaved= 14 BigCof=   23.76 CofMax=   10.00 Det=-6.16D-16
 Inversion failed.  Reducing to 13 matrices.
 Large coefficients: NSaved= 13 BigCof=   17.70 CofMax=   10.00 Det=-7.36D-16
 Inversion failed.  Reducing to 12 matrices.
 Large coefficients: NSaved= 12 BigCof=   17.15 CofMax=   10.00 Det=-7.67D-16
 Inversion failed.  Reducing to 11 matrices.
 Large coefficients: NSaved= 11 BigCof=   16.70 CofMax=   10.00 Det=-7.85D-16
 Inversion failed.  Reducing to 10 matrices.
 Large coefficients: NSaved= 10 BigCof=   16.45 CofMax=   10.00 Det=-8.19D-16
 Inversion failed.  Reducing to  9 matrices.
 Large coefficients: NSaved=  9 BigCof=   16.39 CofMax=   10.00 Det=-8.20D-16
 Inversion failed.  Reducing to  8 matrices.
 Large coefficients: NSaved=  8 BigCof=   15.73 CofMax=   10.00 Det=-8.87D-16
 Inversion failed.  Reducing to  7 matrices.
 Large coefficients: NSaved=  7 BigCof=   15.50 CofMax=   10.00 Det=-9.29D-16
 Inversion failed.  Reducing to  6 matrices.
 Large coefficients: NSaved=  6 BigCof=   14.51 CofMax=   10.00 Det=-1.01D-15
 Inversion failed.  Reducing to  5 matrices.
 Large coefficients: NSaved=  5 BigCof=   14.51 CofMax=   10.00 Det=-1.04D-15
 Inversion failed.  Reducing to  4 matrices.
 Large coefficients: NSaved=  4 BigCof=   10.54 CofMax=   10.00 Det=-1.80D-15
 Inversion failed.  Reducing to  3 matrices.
 Coeff-Com:  0.186D+01-0.989D+01 0.903D+01
 Coeff:      0.186D+01-0.989D+01 0.903D+01
 Gap=     0.440 Goal=   None    Shift=    0.000
 Gap=     0.388 Goal=   None    Shift=    0.000
 RMSDP=2.85D-06 MaxDP=1.14D-04 DE=-6.89D-10 OVMax= 3.14D-04

 Cycle  17  Pass 1  IDiag  1:
 E= -435.116454278813     Delta-E=       -0.000000005246 Rises=F Damp=F
 DIIS: error= 3.94D-06 at cycle  17 NSaved=   4.
 NSaved= 4 IEnMin= 4 EnMin= -435.116454278813     IErMin= 4 ErrMin= 3.94D-06
 ErrMax= 3.94D-06  0.00D+00 EMaxC= 1.00D-01 BMatC= 1.54D-10 BMatP= 1.55D-10
 IDIUse=1 WtCom= 1.00D+00 WtEn= 0.00D+00
 Large coefficients: NSaved=  4 BigCof=   17.29 CofMax=   10.00 Det=-1.84D-15
 Inversion failed.  Reducing to  3 matrices.
 Large coefficients: NSaved=  3 BigCof=   10.80 CofMax=   10.00 Det=-2.72D-15
 Inversion failed.  Reducing to  2 matrices.
 Coeff-Com: -0.702D+01 0.802D+01
 Coeff:     -0.702D+01 0.802D+01
 Gap=     0.440 Goal=   None    Shift=    0.000
 Gap=     0.388 Goal=   None    Shift=    0.000
 RMSDP=2.01D-05 MaxDP=8.06D-04 DE=-5.25D-09 OVMax= 2.21D-03

 Cycle  18  Pass 1  IDiag  1:
 E= -435.116454315572     Delta-E=       -0.000000036759 Rises=F Damp=F
 DIIS: error= 3.89D-06 at cycle  18 NSaved=   3.
 NSaved= 3 IEnMin= 3 EnMin= -435.116454315572     IErMin= 3 ErrMin= 3.89D-06
 ErrMax= 3.89D-06  0.00D+00 EMaxC= 1.00D-01 BMatC= 1.54D-10 BMatP= 1.54D-10
 IDIUse=1 WtCom= 1.00D+00 WtEn= 0.00D+00
 Coeff-Com: -0.709D+01 0.760D+01 0.493D+00
 Coeff:     -0.709D+01 0.760D+01 0.493D+00
 Gap=     0.440 Goal=   None    Shift=    0.000
 Gap=     0.388 Goal=   None    Shift=    0.000
 RMSDP=1.01D-05 MaxDP=4.06D-04 DE=-3.68D-08 OVMax= 1.11D-03

 Cycle  19  Pass 1  IDiag  1:
 E= -435.116454333907     Delta-E=       -0.000000018335 Rises=F Damp=F
 DIIS: error= 3.87D-06 at cycle  19 NSaved=   4.
 NSaved= 4 IEnMin= 4 EnMin= -435.116454333907     IErMin= 4 ErrMin= 3.87D-06
 ErrMax= 3.87D-06  0.00D+00 EMaxC= 1.00D-01 BMatC= 1.58D-10 BMatP= 1.54D-10
 IDIUse=1 WtCom= 1.00D+00 WtEn= 0.00D+00
 Large coefficients: NSaved=  4 BigCof=   12.00 CofMax=   10.00 Det=-2.36D-14
 Inversion failed.  Reducing to  3 matrices.
 Coeff-Com:  0.426D+00 0.741D+00-0.167D+00
 Coeff:      0.426D+00 0.741D+00-0.167D+00
 Gap=     0.440 Goal=   None    Shift=    0.000
 Gap=     0.388 Goal=   None    Shift=    0.000
 RMSDP=2.03D-05 MaxDP=8.14D-04 DE=-1.83D-08 OVMax= 2.23D-03

 Cycle  20  Pass 1  IDiag  1:
 E= -435.116454297049     Delta-E=        0.000000036858 Rises=F Damp=F
 DIIS: error= 3.92D-06 at cycle  20 NSaved=   4.
 NSaved= 4 IEnMin= 3 EnMin= -435.116454333907     IErMin= 3 ErrMin= 3.87D-06
 ErrMax= 3.92D-06  0.00D+00 EMaxC= 1.00D-01 BMatC= 1.52D-10 BMatP= 1.54D-10
 IDIUse=1 WtCom= 1.00D+00 WtEn= 0.00D+00
 Large coefficients: NSaved=  4 BigCof=   17.20 CofMax=   10.00 Det=-5.17D-14
 Inversion failed.  Reducing to  3 matrices.
 Coeff-Com: -0.223D+00 0.360D+00 0.863D+00
 Coeff:     -0.223D+00 0.360D+00 0.863D+00
 Gap=     0.440 Goal=   None    Shift=    0.000
 Gap=     0.388 Goal=   None    Shift=    0.000
 RMSDP=5.14D-06 MaxDP=2.06D-04 DE= 3.69D-08 OVMax= 5.65D-04

 Cycle  21  Pass 1  IDiag  1:
 E= -435.116454306424     Delta-E=       -0.000000009375 Rises=F Damp=F
 DIIS: error= 3.91D-06 at cycle  21 NSaved=   4.
 NSaved= 4 IEnMin= 2 EnMin= -435.116454333907     IErMin= 2 ErrMin= 3.87D-06
 ErrMax= 3.91D-06  0.00D+00 EMaxC= 1.00D-01 BMatC= 1.51D-10 BMatP= 1.52D-10
 IDIUse=1 WtCom= 1.00D+00 WtEn= 0.00D+00
 Large coefficients: NSaved=  4 BigCof=   29.51 CofMax=   10.00 Det=-3.77D-14
 Inversion failed.  Reducing to  3 matrices.
 Coeff-Com:  0.241D+00-0.202D+01 0.278D+01
 Coeff:      0.241D+00-0.202D+01 0.278D+01
 Gap=     0.440 Goal=   None    Shift=    0.000
 Gap=     0.388 Goal=   None    Shift=    0.000
 RMSDP=1.41D-05 MaxDP=5.66D-04 DE=-9.38D-09 OVMax= 1.55D-03

 Cycle  22  Pass 1  IDiag  1:
 E= -435.116454332011     Delta-E=       -0.000000025588 Rises=F Damp=F
 DIIS: error= 3.87D-06 at cycle  22 NSaved=   4.
 NSaved= 4 IEnMin= 1 EnMin= -435.116454333907     IErMin= 1 ErrMin= 3.87D-06
 ErrMax= 3.87D-06  0.00D+00 EMaxC= 1.00D-01 BMatC= 1.50D-10 BMatP= 1.51D-10
 IDIUse=1 WtCom= 1.00D+00 WtEn= 0.00D+00
 Large coefficients: NSaved=  4 BigCof=   25.97 CofMax=   10.00 Det=-3.53D-14
 Inversion failed.  Reducing to  3 matrices.
 Coeff-Com: -0.100D+00 0.658D-01 0.103D+01
 Coeff:     -0.100D+00 0.658D-01 0.103D+01
 Gap=     0.440 Goal=   None    Shift=    0.000
 Gap=     0.388 Goal=   None    Shift=    0.000
 RMSDP=9.40D-07 MaxDP=3.77D-05 DE=-2.56D-08 OVMax= 1.03D-04

 Cycle  23  Pass 1  IDiag  1:
 E= -435.116454330315     Delta-E=        0.000000001697 Rises=F Damp=F
 DIIS: error= 3.87D-06 at cycle  23 NSaved=   4.
 NSaved= 4 IEnMin= 1 EnMin= -435.116454333907     IErMin= 1 ErrMin= 3.87D-06
 ErrMax= 3.87D-06  0.00D+00 EMaxC= 1.00D-01 BMatC= 1.49D-10 BMatP= 1.50D-10
 IDIUse=1 WtCom= 1.00D+00 WtEn= 0.00D+00
 Large coefficients: NSaved=  4 BigCof=   34.17 CofMax=   10.00 Det=-3.54D-14
 Inversion failed.  Reducing to  3 matrices.
 Coeff-Com: -0.108D+00 0.464D+00 0.644D+00
 Coeff:     -0.108D+00 0.464D+00 0.644D+00
 Gap=     0.440 Goal=   None    Shift=    0.000
 Gap=     0.388 Goal=   None    Shift=    0.000
 RMSDP=3.15D-07 MaxDP=1.27D-05 DE= 1.70D-09 OVMax= 3.47D-05

 Cycle  24  Pass 1  IDiag  1:
 E= -435.116454330882     Delta-E=       -0.000000000568 Rises=F Damp=F
 DIIS: error= 3.87D-06 at cycle  24 NSaved=   4.
 NSaved= 4 IEnMin= 1 EnMin= -435.116454333907     IErMin= 1 ErrMin= 3.87D-06
 ErrMax= 3.87D-06  0.00D+00 EMaxC= 1.00D-01 BMatC= 1.49D-10 BMatP= 1.49D-10
 IDIUse=1 WtCom= 1.00D+00 WtEn= 0.00D+00
 Coeff-Com:  0.107D+00-0.407D+00-0.758D+00 0.206D+01
 Coeff:      0.107D+00-0.407D+00-0.758D+00 0.206D+01
 Gap=     0.440 Goal=   None    Shift=    0.000
 Gap=     0.388 Goal=   None    Shift=    0.000
 RMSDP=2.58D-07 MaxDP=1.04D-05 DE=-5.68D-10 OVMax= 2.84D-05

 Cycle  25  Pass 1  IDiag  1:
 E= -435.116454331350     Delta-E=       -0.000000000467 Rises=F Damp=F
 DIIS: error= 3.87D-06 at cycle  25 NSaved=   5.
 NSaved= 5 IEnMin= 1 EnMin= -435.116454333907     IErMin= 1 ErrMin= 3.87D-06
 ErrMax= 3.87D-06  0.00D+00 EMaxC= 1.00D-01 BMatC= 1.49D-10 BMatP= 1.49D-10
 IDIUse=1 WtCom= 1.00D+00 WtEn= 0.00D+00
 Coeff-Com:  0.357D+00-0.899D+00-0.164D+01-0.399D+01 0.717D+01
 Coeff:      0.357D+00-0.899D+00-0.164D+01-0.399D+01 0.717D+01
 Gap=     0.440 Goal=   None    Shift=    0.000
 Gap=     0.388 Goal=   None    Shift=    0.000
 RMSDP=2.24D-06 MaxDP=9.00D-05 DE=-4.67D-10 OVMax= 2.46D-04

 Cycle  26  Pass 1  IDiag  1:
 E= -435.116454335394     Delta-E=       -0.000000004044 Rises=F Damp=F
 DIIS: error= 3.87D-06 at cycle  26 NSaved=   6.
 NSaved= 6 IEnMin= 6 EnMin= -435.116454335394     IErMin= 6 ErrMin= 3.87D-06
 ErrMax= 3.87D-06  0.00D+00 EMaxC= 1.00D-01 BMatC= 1.48D-10 BMatP= 1.49D-10
 IDIUse=1 WtCom= 1.00D+00 WtEn= 0.00D+00
 Large coefficients: NSaved=  6 BigCof=   48.22 CofMax=   10.00 Det=-8.24D-16
 Inversion failed.  Reducing to  5 matrices.
 Coeff-Com: -0.115D+00 0.272D+00 0.523D+00-0.576D+01 0.608D+01
 Coeff:     -0.115D+00 0.272D+00 0.523D+00-0.576D+01 0.608D+01
 Gap=     0.440 Goal=   None    Shift=    0.000
 Gap=     0.388 Goal=   None    Shift=    0.000
 RMSDP=1.13D-05 MaxDP=4.53D-04 DE=-4.04D-09 OVMax= 1.24D-03

 Cycle  27  Pass 1  IDiag  1:
 E= -435.116454355666     Delta-E=       -0.000000020273 Rises=F Damp=F
 DIIS: error= 3.84D-06 at cycle  27 NSaved=   6.
 NSaved= 6 IEnMin= 6 EnMin= -435.116454355666     IErMin= 6 ErrMin= 3.84D-06
 ErrMax= 3.84D-06  0.00D+00 EMaxC= 1.00D-01 BMatC= 1.47D-10 BMatP= 1.48D-10
 IDIUse=1 WtCom= 1.00D+00 WtEn= 0.00D+00
 Large coefficients: NSaved=  6 BigCof=   34.18 CofMax=   10.00 Det=-2.24D-15
 Inversion failed.  Reducing to  5 matrices.
 Coeff-Com: -0.730D+00 0.193D+00-0.109D+01-0.252D+01 0.514D+01
 Coeff:     -0.730D+00 0.193D+00-0.109D+01-0.252D+01 0.514D+01
 Gap=     0.440 Goal=   None    Shift=    0.000
 Gap=     0.388 Goal=   None    Shift=    0.000
 RMSDP=4.94D-05 MaxDP=1.99D-03 DE=-2.03D-08 OVMax= 5.44D-03

 Cycle  28  Pass 1  IDiag  1:
 E= -435.116454442848     Delta-E=       -0.000000087182 Rises=F Damp=F
 DIIS: error= 3.72D-06 at cycle  28 NSaved=   6.
 NSaved= 6 IEnMin= 6 EnMin= -435.116454442848     IErMin= 6 ErrMin= 3.72D-06
 ErrMax= 3.72D-06  0.00D+00 EMaxC= 1.00D-01 BMatC= 2.72D-10 BMatP= 1.47D-10
 IDIUse=1 WtCom= 1.00D+00 WtEn= 0.00D+00
 Large coefficients: NSaved=  6 BigCof=   10.28 CofMax=   10.00 Det=-1.72D-14
 Inversion failed.  Reducing to  5 matrices.
 Coeff-Com: -0.251D+01-0.610D+00-0.117D+01 0.472D+01 0.569D+00
 Coeff:     -0.251D+01-0.610D+00-0.117D+01 0.472D+01 0.569D+00
 Gap=     0.440 Goal=   None    Shift=    0.000
 Gap=     0.388 Goal=   None    Shift=    0.000
 RMSDP=3.03D-05 MaxDP=1.22D-03 DE=-8.72D-08 OVMax= 3.33D-03

 Cycle  29  Pass 1  IDiag  1:
 E= -435.116454494872     Delta-E=       -0.000000052024 Rises=F Damp=F
 DIIS: error= 4.21D-06 at cycle  29 NSaved=   6.
 NSaved= 6 IEnMin= 6 EnMin= -435.116454494872     IErMin= 5 ErrMin= 3.72D-06
 ErrMax= 4.21D-06  0.00D+00 EMaxC= 1.00D-01 BMatC= 5.78D-10 BMatP= 1.47D-10
 IDIUse=1 WtCom= 1.00D+00 WtEn= 0.00D+00
 Coeff-Com: -0.169D+01 0.547D+00-0.880D+01 0.902D+01 0.410D+01-0.218D+01
 Coeff:     -0.169D+01 0.547D+00-0.880D+01 0.902D+01 0.410D+01-0.218D+01
 Gap=     0.440 Goal=   None    Shift=    0.000
 Gap=     0.388 Goal=   None    Shift=    0.000
 RMSDP=6.14D-05 MaxDP=2.48D-03 DE=-5.20D-08 OVMax= 6.76D-03

 Cycle  30  Pass 1  IDiag  1:
 E= -435.116454595312     Delta-E=       -0.000000100440 Rises=F Damp=F
 DIIS: error= 1.66D-05 at cycle  30 NSaved=   7.
 NSaved= 7 IEnMin= 7 EnMin= -435.116454595312     IErMin= 5 ErrMin= 3.72D-06
 ErrMax= 1.66D-05  0.00D+00 EMaxC= 1.00D-01 BMatC= 9.33D-09 BMatP= 1.47D-10
 IDIUse=1 WtCom= 1.00D+00 WtEn= 0.00D+00
 Large coefficients: NSaved=  7 BigCof=   10.94 CofMax=   10.00 Det=-8.73D-14
 Inversion failed.  Reducing to  6 matrices.
 Coeff-Com:  0.105D+01-0.713D+01 0.417D+01 0.159D+00 0.363D+01-0.867D+00
 Coeff:      0.105D+01-0.713D+01 0.417D+01 0.159D+00 0.363D+01-0.867D+00
 Gap=     0.440 Goal=   None    Shift=    0.000
 Gap=     0.388 Goal=   None    Shift=    0.000
 RMSDP=1.01D-04 MaxDP=4.11D-03 DE=-1.00D-07 OVMax= 1.11D-02

 Cycle  31  Pass 1  IDiag  1:
 E= -435.116454747199     Delta-E=       -0.000000151887 Rises=F Damp=F
 DIIS: error= 3.44D-05 at cycle  31 NSaved=   7.
 NSaved= 7 IEnMin= 7 EnMin= -435.116454747199     IErMin= 4 ErrMin= 3.72D-06
 ErrMax= 3.44D-05  0.00D+00 EMaxC= 1.00D-01 BMatC= 4.22D-08 BMatP= 1.47D-10
 IDIUse=1 WtCom= 1.00D+00 WtEn= 0.00D+00
 Large coefficients: NSaved=  7 BigCof=   16.59 CofMax=   10.00 Det=-8.11D-14
 Inversion failed.  Reducing to  6 matrices.
 Large coefficients: NSaved=  6 BigCof=   12.60 CofMax=   10.00 Det=-8.22D-14
 Inversion failed.  Reducing to  5 matrices.
 Coeff-Com: -0.788D+00-0.166D+01 0.507D+01-0.225D+01 0.627D+00
 Coeff:     -0.788D+00-0.166D+01 0.507D+01-0.225D+01 0.627D+00
 Gap=     0.440 Goal=   None    Shift=    0.000
 Gap=     0.388 Goal=   None    Shift=    0.000
 RMSDP=8.57D-05 MaxDP=3.48D-03 DE=-1.52D-07 OVMax= 9.42D-03

 Cycle  32  Pass 1  IDiag  1:
 E= -435.116454622592     Delta-E=        0.000000124607 Rises=F Damp=F
 DIIS: error= 3.47D-06 at cycle  32 NSaved=   6.
 NSaved= 6 IEnMin= 5 EnMin= -435.116454747199     IErMin= 6 ErrMin= 3.47D-06
 ErrMax= 3.47D-06  0.00D+00 EMaxC= 1.00D-01 BMatC= 3.99D-10 BMatP= 1.47D-10
 IDIUse=1 WtCom= 1.00D+00 WtEn= 0.00D+00
 Coeff-Com: -0.446D+01 0.810D+01-0.827D+01 0.556D+00-0.294D+00 0.536D+01
 Coeff:     -0.446D+01 0.810D+01-0.827D+01 0.556D+00-0.294D+00 0.536D+01
 Gap=     0.440 Goal=   None    Shift=    0.000
 Gap=     0.388 Goal=   None    Shift=    0.000
 RMSDP=4.30D-04 MaxDP=1.76D-02 DE= 1.25D-07 OVMax= 4.73D-02

 Cycle  33  Pass 1  IDiag  1:
 E= -435.116454994430     Delta-E=       -0.000000371838 Rises=F Damp=F
 DIIS: error= 1.67D-04 at cycle  33 NSaved=   7.
 NSaved= 7 IEnMin= 7 EnMin= -435.116454994430     IErMin= 6 ErrMin= 3.47D-06
 ErrMax= 1.67D-04  0.00D+00 EMaxC= 1.00D-01 BMatC= 9.46D-07 BMatP= 1.47D-10
 IDIUse=1 WtCom= 1.00D+00 WtEn= 0.00D+00
 Coeff-Com: -0.486D+01 0.714D+01-0.733D+01 0.214D+01-0.135D+01 0.521D+01
 Coeff-Com:  0.613D-01
 Coeff:     -0.486D+01 0.714D+01-0.733D+01 0.214D+01-0.135D+01 0.521D+01
 Coeff:      0.613D-01
 Gap=     0.440 Goal=   None    Shift=    0.000
 Gap=     0.388 Goal=   None    Shift=    0.000
 RMSDP=5.12D-06 MaxDP=2.11D-04 DE=-3.72D-07 OVMax= 5.62D-04

 Cycle  34  Pass 1  IDiag  1:
 E= -435.116454971909     Delta-E=        0.000000022521 Rises=F Damp=F
 DIIS: error= 1.78D-04 at cycle  34 NSaved=   8.
 NSaved= 8 IEnMin= 7 EnMin= -435.116454994430     IErMin= 6 ErrMin= 3.47D-06
 ErrMax= 1.78D-04  0.00D+00 EMaxC= 1.00D-01 BMatC= 1.07D-06 BMatP= 1.47D-10
 IDIUse=1 WtCom= 1.00D+00 WtEn= 0.00D+00
 Large coefficients: NSaved=  8 BigCof=   11.04 CofMax=   10.00 Det=-1.07D-13
 Inversion failed.  Reducing to  7 matrices.
 Coeff-Com:  0.184D+01-0.343D+01-0.758D-01-0.153D-01 0.267D+01-0.112D+00
 Coeff-Com:  0.122D+00
 Coeff:      0.184D+01-0.343D+01-0.758D-01-0.153D-01 0.267D+01-0.112D+00
 Coeff:      0.122D+00
 Gap=     0.440 Goal=   None    Shift=    0.000
 Gap=     0.388 Goal=   None    Shift=    0.000
 RMSDP=3.64D-04 MaxDP=1.50D-02 DE= 2.25D-08 OVMax= 4.01D-02

 Cycle  35  Pass 1  IDiag  1:
 E= -435.116454734279     Delta-E=        0.000000237630 Rises=F Damp=F
 DIIS: error= 3.31D-06 at cycle  35 NSaved=   8.
 NSaved= 8 IEnMin= 6 EnMin= -435.116454994430     IErMin= 8 ErrMin= 3.31D-06
 ErrMax= 3.31D-06  0.00D+00 EMaxC= 1.00D-01 BMatC= 1.59D-10 BMatP= 2.72D-10
 IDIUse=1 WtCom= 1.00D+00 WtEn= 0.00D+00
 Large coefficients: NSaved=  8 BigCof=   11.48 CofMax=   10.00 Det=-1.31D-13
 Inversion failed.  Reducing to  7 matrices.
 Large coefficients: NSaved=  7 BigCof=   12.94 CofMax=   10.00 Det=-3.38D-13
 Inversion failed.  Reducing to  6 matrices.
 Coeff-Com: -0.101D+01 0.291D+00 0.378D+00 0.128D+01-0.118D+01 0.125D+01
 Coeff:     -0.101D+01 0.291D+00 0.378D+00 0.128D+01-0.118D+01 0.125D+01
 Gap=     0.440 Goal=   None    Shift=    0.000
 Gap=     0.388 Goal=   None    Shift=    0.000
 RMSDP=9.42D-05 MaxDP=3.85D-03 DE= 2.38D-07 OVMax= 1.04D-02

 Cycle  36  Pass 1  IDiag  1:
 E= -435.116454873519     Delta-E=       -0.000000139240 Rises=F Damp=F
 DIIS: error= 4.61D-06 at cycle  36 NSaved=   7.
 NSaved= 7 IEnMin= 4 EnMin= -435.116454994430     IErMin= 6 ErrMin= 3.31D-06
 ErrMax= 4.61D-06  0.00D+00 EMaxC= 1.00D-01 BMatC= 6.72D-10 BMatP= 1.59D-10
 IDIUse=1 WtCom= 1.00D+00 WtEn= 0.00D+00
 Coeff-Com:  0.224D+00 0.103D+00-0.359D+01-0.399D+01 0.367D+01 0.104D+00
 Coeff-Com:  0.449D+01
 Coeff:      0.224D+00 0.103D+00-0.359D+01-0.399D+01 0.367D+01 0.104D+00
 Coeff:      0.449D+01
 Gap=     0.440 Goal=   None    Shift=    0.000
 Gap=     0.388 Goal=   None    Shift=    0.000
 RMSDP=4.64D-04 MaxDP=1.92D-02 DE=-1.39D-07 OVMax= 5.10D-02

 Cycle  37  Pass 1  IDiag  1:
 E= -435.116455067199     Delta-E=       -0.000000193680 Rises=F Damp=F
 DIIS: error= 2.14D-04 at cycle  37 NSaved=   8.
 NSaved= 8 IEnMin= 8 EnMin= -435.116455067199     IErMin= 6 ErrMin= 3.31D-06
 ErrMax= 2.14D-04  0.00D+00 EMaxC= 1.00D-01 BMatC= 1.50D-06 BMatP= 1.59D-10
 IDIUse=1 WtCom= 1.00D+00 WtEn= 0.00D+00
 Coeff-Com: -0.365D+01 0.526D+01-0.337D+01-0.336D+01 0.139D+01 0.429D+00
 Coeff-Com:  0.342D+01 0.876D+00
 Coeff:     -0.365D+01 0.526D+01-0.337D+01-0.336D+01 0.139D+01 0.429D+00
 Coeff:      0.342D+01 0.876D+00
 Gap=     0.439 Goal=   None    Shift=    0.000
 Gap=     0.388 Goal=   None    Shift=    0.000
 RMSDP=1.78D-04 MaxDP=7.44D-03 DE=-1.94D-07 OVMax= 1.96D-02

 Cycle  38  Pass 1  IDiag  1:
 E= -435.116454576841     Delta-E=        0.000000490358 Rises=F Damp=F
 DIIS: error= 3.65D-04 at cycle  38 NSaved=   9.
 NSaved= 9 IEnMin= 8 EnMin= -435.116455067199     IErMin= 6 ErrMin= 3.31D-06
 ErrMax= 3.65D-04  0.00D+00 EMaxC= 1.00D-01 BMatC= 4.24D-06 BMatP= 1.59D-10
 IDIUse=1 WtCom= 1.00D+00 WtEn= 0.00D+00
 Coeff-Com: -0.261D+01 0.570D+01-0.564D+01 0.304D+00-0.188D+01 0.602D+00
 Coeff-Com:  0.423D+01-0.125D+00 0.425D+00
 Coeff:     -0.261D+01 0.570D+01-0.564D+01 0.304D+00-0.188D+01 0.602D+00
 Coeff:      0.423D+01-0.125D+00 0.425D+00
 Gap=     0.439 Goal=   None    Shift=    0.000
 Gap=     0.388 Goal=   None    Shift=    0.000
 RMSDP=3.02D-05 MaxDP=1.26D-03 DE= 4.90D-07 OVMax= 3.32D-03

 Cycle  39  Pass 1  IDiag  1:
 E= -435.116454258593     Delta-E=        0.000000318249 Rises=F Damp=F
 DIIS: error= 4.25D-04 at cycle  39 NSaved=  10.
 NSaved=10 IEnMin= 8 EnMin= -435.116455067199     IErMin= 6 ErrMin= 3.31D-06
 ErrMax= 4.25D-04  0.00D+00 EMaxC= 1.00D-01 BMatC= 5.71D-06 BMatP= 1.59D-10
 IDIUse=1 WtCom= 1.00D+00 WtEn= 0.00D+00
 Large coefficients: NSaved= 10 BigCof=   18.73 CofMax=   10.00 Det=-6.41D-14
 Inversion failed.  Reducing to  9 matrices.
 Large coefficients: NSaved=  9 BigCof=   19.22 CofMax=   10.00 Det=-7.44D-14
 Inversion failed.  Reducing to  8 matrices.
 Large coefficients: NSaved=  8 BigCof=   21.41 CofMax=   10.00 Det=-7.62D-14
 Inversion failed.  Reducing to  7 matrices.
 Large coefficients: NSaved=  7 BigCof=   17.28 CofMax=   10.00 Det=-1.02D-13
 Inversion failed.  Reducing to  6 matrices.
 Large coefficients: NSaved=  6 BigCof=   15.52 CofMax=   10.00 Det=-1.61D-13
 Inversion failed.  Reducing to  5 matrices.
 Large coefficients: NSaved=  5 BigCof=   23.41 CofMax=   10.00 Det=-3.76D-13
 Inversion failed.  Reducing to  4 matrices.
 Large coefficients: NSaved=  4 BigCof=   33.56 CofMax=   10.00 Det=-7.28D-13
 Inversion failed.  Reducing to  3 matrices.
 Large coefficients: NSaved=  3 BigCof=   48.61 CofMax=   10.00 Det=-3.90D-12
 Inversion failed.  Reducing to  2 matrices.
 Coeff-Com:  0.721D+01-0.621D+01
 Coeff:      0.721D+01-0.621D+01
 Gap=     0.440 Goal=   None    Shift=    0.000
 Gap=     0.388 Goal=   None    Shift=    0.000
 RMSDP=2.18D-04 MaxDP=9.08D-03 DE= 3.18D-07 OVMax= 2.39D-02

 Cycle  40  Pass 1  IDiag  1:
 E= -435.116455396798     Delta-E=       -0.000001138206 Rises=F Damp=F
 DIIS: error= 2.74D-05 at cycle  40 NSaved=   3.
 NSaved= 3 IEnMin= 3 EnMin= -435.116455396798     IErMin= 3 ErrMin= 2.74D-05
 ErrMax= 2.74D-05  0.00D+00 EMaxC= 1.00D-01 BMatC= 2.50D-08 BMatP= 4.24D-06
 IDIUse=1 WtCom= 1.00D+00 WtEn= 0.00D+00
 Coeff-Com: -0.256D+01 0.211D+01 0.145D+01
 Coeff:     -0.256D+01 0.211D+01 0.145D+01
 Gap=     0.440 Goal=   None    Shift=    0.000
 Gap=     0.388 Goal=   None    Shift=    0.000
 RMSDP=2.05D-05 MaxDP=8.49D-04 DE=-1.14D-06 OVMax= 2.25D-03

 Cycle  41  Pass 1  IDiag  1:
 E= -435.116455383656     Delta-E=        0.000000013142 Rises=F Damp=F
 DIIS: error= 6.92D-06 at cycle  41 NSaved=   4.
 NSaved= 4 IEnMin= 3 EnMin= -435.116455396798     IErMin= 4 ErrMin= 6.92D-06
 ErrMax= 6.92D-06  0.00D+00 EMaxC= 1.00D-01 BMatC= 1.36D-09 BMatP= 2.50D-08
 IDIUse=1 WtCom= 1.00D+00 WtEn= 0.00D+00
 Coeff-Com:  0.358D+00-0.274D+00-0.259D+00 0.117D+01
 Coeff:      0.358D+00-0.274D+00-0.259D+00 0.117D+01
 Gap=     0.440 Goal=   None    Shift=    0.000
 Gap=     0.388 Goal=   None    Shift=    0.000
 RMSDP=4.02D-06 MaxDP=1.67D-04 DE= 1.31D-08 OVMax= 4.42D-04

 Cycle  42  Pass 1  IDiag  1:
 E= -435.116455387653     Delta-E=       -0.000000003997 Rises=F Damp=F
 DIIS: error= 1.97D-06 at cycle  42 NSaved=   5.
 NSaved= 5 IEnMin= 3 EnMin= -435.116455396798     IErMin= 5 ErrMin= 1.97D-06
 ErrMax= 1.97D-06  0.00D+00 EMaxC= 1.00D-01 BMatC= 3.81D-11 BMatP= 1.36D-09
 IDIUse=1 WtCom= 1.00D+00 WtEn= 0.00D+00
 Coeff-Com: -0.111D+00 0.920D-01-0.135D-01-0.308D+00 0.134D+01
 Coeff:     -0.111D+00 0.920D-01-0.135D-01-0.308D+00 0.134D+01
 Gap=     0.440 Goal=   None    Shift=    0.000
 Gap=     0.388 Goal=   None    Shift=    0.000
 RMSDP=1.29D-07 MaxDP=5.27D-06 DE=-4.00D-09 OVMax= 1.42D-05

 Cycle  43  Pass 1  IDiag  1:
 E= -435.116455387534     Delta-E=        0.000000000119 Rises=F Damp=F
 DIIS: error= 1.98D-06 at cycle  43 NSaved=   6.
 NSaved= 6 IEnMin= 3 EnMin= -435.116455396798     IErMin= 5 ErrMin= 1.97D-06
 ErrMax= 1.98D-06  0.00D+00 EMaxC= 1.00D-01 BMatC= 3.92D-11 BMatP= 3.81D-11
 IDIUse=1 WtCom= 1.00D+00 WtEn= 0.00D+00
 Coeff-Com: -0.151D+00 0.126D+00 0.124D-01-0.258D+00 0.505D+00 0.766D+00
 Coeff:     -0.151D+00 0.126D+00 0.124D-01-0.258D+00 0.505D+00 0.766D+00
 Gap=     0.440 Goal=   None    Shift=    0.000
 Gap=     0.388 Goal=   None    Shift=    0.000
 RMSDP=3.13D-08 MaxDP=1.27D-06 DE= 1.19D-10 OVMax= 3.41D-06

 Cycle  44  Pass 1  IDiag  1:
 E= -435.116455387505     Delta-E=        0.000000000030 Rises=F Damp=F
 DIIS: error= 1.99D-06 at cycle  44 NSaved=   7.
 NSaved= 7 IEnMin= 3 EnMin= -435.116455396798     IErMin= 5 ErrMin= 1.97D-06
 ErrMax= 1.99D-06  0.00D+00 EMaxC= 1.00D-01 BMatC= 4.24D-11 BMatP= 3.81D-11
 IDIUse=1 WtCom= 1.00D+00 WtEn= 0.00D+00
 Coeff-Com: -0.163D+00 0.134D+00 0.173D-01-0.320D+00 0.676D+00 0.105D+01
 Coeff-Com: -0.390D+00
 Coeff:     -0.163D+00 0.134D+00 0.173D-01-0.320D+00 0.676D+00 0.105D+01
 Coeff:     -0.390D+00
 Gap=     0.440 Goal=   None    Shift=    0.000
 Gap=     0.388 Goal=   None    Shift=    0.000
 RMSDP=2.20D-08 MaxDP=9.19D-07 DE= 2.99D-11 OVMax= 2.42D-06

 Cycle  45  Pass 1  IDiag  1:
 E= -435.116455387485     Delta-E=        0.000000000020 Rises=F Damp=F
 DIIS: error= 1.99D-06 at cycle  45 NSaved=   8.
 NSaved= 8 IEnMin= 3 EnMin= -435.116455396798     IErMin= 5 ErrMin= 1.97D-06
 ErrMax= 1.99D-06  0.00D+00 EMaxC= 1.00D-01 BMatC= 4.20D-11 BMatP= 3.81D-11
 IDIUse=1 WtCom= 1.00D+00 WtEn= 0.00D+00
 Large coefficients: NSaved=  8 BigCof=   21.59 CofMax=   10.00 Det=-2.22D-16
 Inversion failed.  Reducing to  7 matrices.
 Coeff-Com:  0.674D-02-0.648D-01 0.539D-01 0.660D-02 0.238D+00-0.466D+01
 Coeff-Com:  0.542D+01
 Coeff:      0.674D-02-0.648D-01 0.539D-01 0.660D-02 0.238D+00-0.466D+01
 Coeff:      0.542D+01
 Gap=     0.440 Goal=   None    Shift=    0.000
 Gap=     0.388 Goal=   None    Shift=    0.000
 RMSDP=5.01D-08 MaxDP=2.05D-06 DE= 1.99D-11 OVMax= 5.48D-06

 Cycle  46  Pass 1  IDiag  1:
 E= -435.116455387532     Delta-E=       -0.000000000047 Rises=F Damp=F
 DIIS: error= 1.98D-06 at cycle  46 NSaved=   8.
 NSaved= 8 IEnMin= 2 EnMin= -435.116455396798     IErMin= 4 ErrMin= 1.97D-06
 ErrMax= 1.98D-06  0.00D+00 EMaxC= 1.00D-01 BMatC= 3.81D-11 BMatP= 3.81D-11
 IDIUse=1 WtCom= 1.00D+00 WtEn= 0.00D+00
 Coeff-Com:  0.663D-02-0.642D-01 0.421D-01 0.596D-01 0.280D+00-0.392D+01
 Coeff-Com:  0.493D+01-0.327D+00
 Coeff:      0.663D-02-0.642D-01 0.421D-01 0.596D-01 0.280D+00-0.392D+01
 Coeff:      0.493D+01-0.327D+00
 Gap=     0.440 Goal=   None    Shift=    0.000
 Gap=     0.388 Goal=   None    Shift=    0.000
 RMSDP=4.38D-08 MaxDP=1.83D-06 DE=-4.70D-11 OVMax= 4.81D-06

 Cycle  47  Pass 1  IDiag  1:
 E= -435.116455387571     Delta-E=       -0.000000000040 Rises=F Damp=F
 DIIS: error= 1.98D-06 at cycle  47 NSaved=   9.
 NSaved= 9 IEnMin= 2 EnMin= -435.116455396798     IErMin= 4 ErrMin= 1.97D-06
 ErrMax= 1.98D-06  0.00D+00 EMaxC= 1.00D-01 BMatC= 3.81D-11 BMatP= 3.81D-11
 IDIUse=1 WtCom= 1.00D+00 WtEn= 0.00D+00
 Large coefficients: NSaved=  9 BigCof= 1272.03 CofMax=   10.00 Det=-1.86D-18
 Inversion failed.  Reducing to  8 matrices.
 Large coefficients: NSaved=  8 BigCof= 1014.32 CofMax=   10.00 Det=-2.10D-18
 Inversion failed.  Reducing to  7 matrices.
 Large coefficients: NSaved=  7 BigCof=  540.64 CofMax=   10.00 Det=-5.29D-18
 Inversion failed.  Reducing to  6 matrices.
 Large coefficients: NSaved=  6 BigCof=  334.51 CofMax=   10.00 Det=-6.83D-18
 Inversion failed.  Reducing to  5 matrices.
 Large coefficients: NSaved=  5 BigCof=  462.72 CofMax=   10.00 Det=-9.83D-18
 Inversion failed.  Reducing to  4 matrices.
 Large coefficients: NSaved=  4 BigCof=  461.84 CofMax=   10.00 Det=-9.83D-18
 Inversion failed.  Reducing to  3 matrices.
 Large coefficients: NSaved=  3 BigCof=  454.78 CofMax=   10.00 Det=-9.94D-18
 Inversion failed.  Reducing to  2 matrices.
 Large coefficients: NSaved=  2 BigCof=   67.65 CofMax=   10.00 Det=-2.96D-16
 Coeff-Com: -0.667D+02 0.677D+02
 Coeff:     -0.667D+02 0.677D+02
 Gap=     0.440 Goal=   None    Shift=    0.000
 Gap=     0.388 Goal=   None    Shift=    0.000
 RMSDP=2.97D-06 MaxDP=1.24D-04 DE=-3.98D-11 OVMax= 3.26D-04

 Cycle  48  Pass 1  IDiag  1:
 E= -435.116455390289     Delta-E=       -0.000000002717 Rises=F Damp=F
 DIIS: error= 1.96D-06 at cycle  48 NSaved=   3.
 NSaved= 3 IEnMin= 3 EnMin= -435.116455390289     IErMin= 3 ErrMin= 1.96D-06
 ErrMax= 1.96D-06  0.00D+00 EMaxC= 1.00D-01 BMatC= 3.77D-11 BMatP= 3.81D-11
 IDIUse=1 WtCom= 1.00D+00 WtEn= 0.00D+00
 Large coefficients: NSaved=  3 BigCof=  298.16 CofMax=   10.00 Det=-2.58D-17
 Inversion failed.  Reducing to  2 matrices.
 Coeff-Com:  0.367D+00 0.633D+00
 Coeff:      0.367D+00 0.633D+00
 Gap=     0.440 Goal=   None    Shift=    0.000
 Gap=     0.388 Goal=   None    Shift=    0.000
 RMSDP=1.04D-06 MaxDP=4.35D-05 DE=-2.72D-09 OVMax= 1.15D-04

 Cycle  49  Pass 1  IDiag  1:
 E= -435.116455389336     Delta-E=        0.000000000953 Rises=F Damp=F
 DIIS: error= 1.97D-06 at cycle  49 NSaved=   3.
 NSaved= 3 IEnMin= 2 EnMin= -435.116455390289     IErMin= 2 ErrMin= 1.96D-06
 ErrMax= 1.97D-06  0.00D+00 EMaxC= 1.00D-01 BMatC= 3.80D-11 BMatP= 3.77D-11
 IDIUse=1 WtCom= 1.00D+00 WtEn= 0.00D+00
 Coeff-Com:  0.806D+00 0.670D+01-0.650D+01
 Coeff:      0.806D+00 0.670D+01-0.650D+01
 Gap=     0.440 Goal=   None    Shift=    0.000
 Gap=     0.388 Goal=   None    Shift=    0.000
 RMSDP=5.47D-06 MaxDP=2.28D-04 DE= 9.53D-10 OVMax= 6.02D-04

 Cycle  50  Pass 1  IDiag  1:
 E= -435.116455394329     Delta-E=       -0.000000004993 Rises=F Damp=F
 DIIS: error= 1.96D-06 at cycle  50 NSaved=   4.
 NSaved= 4 IEnMin= 4 EnMin= -435.116455394329     IErMin= 4 ErrMin= 1.96D-06
 ErrMax= 1.96D-06  0.00D+00 EMaxC= 1.00D-01 BMatC= 3.72D-11 BMatP= 3.77D-11
 IDIUse=1 WtCom= 1.00D+00 WtEn= 0.00D+00
 Coeff-Com:  0.168D+01 0.486D+01-0.958D+01 0.404D+01
 Coeff:      0.168D+01 0.486D+01-0.958D+01 0.404D+01
 Gap=     0.440 Goal=   None    Shift=    0.000
 Gap=     0.388 Goal=   None    Shift=    0.000
 RMSDP=1.85D-05 MaxDP=7.73D-04 DE=-4.99D-09 OVMax= 2.04D-03

 Cycle  51  Pass 1  IDiag  1:
 E= -435.116455410960     Delta-E=       -0.000000016632 Rises=F Damp=F
 DIIS: error= 1.92D-06 at cycle  51 NSaved=   5.
 NSaved= 5 IEnMin= 5 EnMin= -435.116455410960     IErMin= 5 ErrMin= 1.92D-06
 ErrMax= 1.92D-06  0.00D+00 EMaxC= 1.00D-01 BMatC= 3.84D-11 BMatP= 3.72D-11
 IDIUse=1 WtCom= 1.00D+00 WtEn= 0.00D+00
 Coeff-Com:  0.361D+01-0.686D+01 0.109D+01 0.913D+00 0.225D+01
 Coeff:      0.361D+01-0.686D+01 0.109D+01 0.913D+00 0.225D+01
 Gap=     0.440 Goal=   None    Shift=    0.000
 Gap=     0.388 Goal=   None    Shift=    0.000
 RMSDP=2.08D-05 MaxDP=8.70D-04 DE=-1.66D-08 OVMax= 2.29D-03

 Cycle  52  Pass 1  IDiag  1:
 E= -435.116455429197     Delta-E=       -0.000000018236 Rises=F Damp=F
 DIIS: error= 1.87D-06 at cycle  52 NSaved=   6.
 NSaved= 6 IEnMin= 6 EnMin= -435.116455429197     IErMin= 6 ErrMin= 1.87D-06
 ErrMax= 1.87D-06  0.00D+00 EMaxC= 1.00D-01 BMatC= 3.96D-11 BMatP= 3.72D-11
 IDIUse=1 WtCom= 1.00D+00 WtEn= 0.00D+00
 Large coefficients: NSaved=  6 BigCof=   15.05 CofMax=   10.00 Det=-7.11D-15
 Inversion failed.  Reducing to  5 matrices.
 Coeff-Com:  0.418D+01-0.400D+01 0.108D+01-0.111D+01 0.846D+00
 Coeff:      0.418D+01-0.400D+01 0.108D+01-0.111D+01 0.846D+00
 Gap=     0.440 Goal=   None    Shift=    0.000
 Gap=     0.388 Goal=   None    Shift=    0.000
 RMSDP=2.32D-05 MaxDP=9.69D-04 DE=-1.82D-08 OVMax= 2.55D-03

 Cycle  53  Pass 1  IDiag  1:
 E= -435.116455408867     Delta-E=        0.000000020329 Rises=F Damp=F
 DIIS: error= 1.91D-06 at cycle  53 NSaved=   6.
 NSaved= 6 IEnMin= 5 EnMin= -435.116455429197     IErMin= 5 ErrMin= 1.87D-06
 ErrMax= 1.91D-06  0.00D+00 EMaxC= 1.00D-01 BMatC= 4.10D-11 BMatP= 3.72D-11
 IDIUse=1 WtCom= 1.00D+00 WtEn= 0.00D+00
 Large coefficients: NSaved=  6 BigCof=   34.35 CofMax=   10.00 Det=-6.20D-15
 Inversion failed.  Reducing to  5 matrices.
 Coeff-Com: -0.706D+01 0.102D+01-0.132D+01 0.436D+01 0.400D+01
 Coeff:     -0.706D+01 0.102D+01-0.132D+01 0.436D+01 0.400D+01
 Gap=     0.440 Goal=   None    Shift=    0.000
 Gap=     0.388 Goal=   None    Shift=    0.000
 RMSDP=2.27D-04 MaxDP=9.49D-03 DE= 2.03D-08 OVMax= 2.49D-02

 Cycle  54  Pass 1  IDiag  1:
 E= -435.116455571256     Delta-E=       -0.000000162388 Rises=F Damp=F
 DIIS: error= 3.54D-05 at cycle  54 NSaved=   6.
 NSaved= 6 IEnMin= 6 EnMin= -435.116455571256     IErMin= 4 ErrMin= 1.87D-06
 ErrMax= 3.54D-05  0.00D+00 EMaxC= 1.00D-01 BMatC= 3.97D-08 BMatP= 3.72D-11
 IDIUse=1 WtCom= 1.00D+00 WtEn= 0.00D+00
 Large coefficients: NSaved=  6 BigCof=   20.96 CofMax=   10.00 Det=-1.93D-14
 Inversion failed.  Reducing to  5 matrices.
 Coeff-Com: -0.407D+01-0.200D+01 0.478D+01 0.231D+01-0.123D-01
 Coeff:     -0.407D+01-0.200D+01 0.478D+01 0.231D+01-0.123D-01
 Gap=     0.440 Goal=   None    Shift=    0.000
 Gap=     0.388 Goal=   None    Shift=    0.000
 RMSDP=5.74D-05 MaxDP=2.41D-03 DE=-1.62D-07 OVMax= 6.31D-03

 Cycle  55  Pass 1  IDiag  1:
 E= -435.116455540008     Delta-E=        0.000000031248 Rises=F Damp=F
 DIIS: error= 1.89D-05 at cycle  55 NSaved=   6.
 NSaved= 6 IEnMin= 5 EnMin= -435.116455571256     IErMin= 3 ErrMin= 1.87D-06
 ErrMax= 1.89D-05  0.00D+00 EMaxC= 1.00D-01 BMatC= 1.15D-08 BMatP= 3.72D-11
 IDIUse=1 WtCom= 1.00D+00 WtEn= 0.00D+00
 Coeff-Com: -0.480D+01-0.200D+01 0.510D+01 0.222D+01-0.587D+00 0.106D+01
 Coeff:     -0.480D+01-0.200D+01 0.510D+01 0.222D+01-0.587D+00 0.106D+01
 Gap=     0.440 Goal=   None    Shift=    0.000
 Gap=     0.388 Goal=   None    Shift=    0.000
 RMSDP=6.81D-05 MaxDP=2.86D-03 DE= 3.12D-08 OVMax= 7.49D-03

 Cycle  56  Pass 1  IDiag  1:
 E= -435.116455576820     Delta-E=       -0.000000036812 Rises=F Damp=F
 DIIS: error= 3.74D-05 at cycle  56 NSaved=   7.
 NSaved= 7 IEnMin= 7 EnMin= -435.116455576820     IErMin= 3 ErrMin= 1.87D-06
 ErrMax= 3.74D-05  0.00D+00 EMaxC= 1.00D-01 BMatC= 4.44D-08 BMatP= 3.72D-11
 IDIUse=1 WtCom= 1.00D+00 WtEn= 0.00D+00
 Large coefficients: NSaved=  7 BigCof=   10.77 CofMax=   10.00 Det=-4.69D-14
 Inversion failed.  Reducing to  6 matrices.
 Coeff-Com: -0.271D+01 0.263D+01 0.964D+00-0.464D+00 0.288D+00 0.295D+00
 Coeff:     -0.271D+01 0.263D+01 0.964D+00-0.464D+00 0.288D+00 0.295D+00
 Gap=     0.440 Goal=   None    Shift=    0.000
 Gap=     0.388 Goal=   None    Shift=    0.000
 RMSDP=1.69D-04 MaxDP=7.10D-03 DE=-3.68D-08 OVMax= 1.86D-02

 Cycle  57  Pass 1  IDiag  1:
 E= -435.116455466638     Delta-E=        0.000000110182 Rises=F Damp=F
 DIIS: error= 1.78D-06 at cycle  57 NSaved=   7.
 NSaved= 7 IEnMin= 6 EnMin= -435.116455576820     IErMin= 7 ErrMin= 1.78D-06
 ErrMax= 1.78D-06  0.00D+00 EMaxC= 1.00D-01 BMatC= 1.06D-10 BMatP= 3.84D-11
 IDIUse=1 WtCom= 1.00D+00 WtEn= 0.00D+00
 Coeff-Com: -0.494D+01 0.684D+01-0.779D+01 0.326D+01-0.285D+01-0.212D+01
 Coeff-Com:  0.859D+01
 Coeff:     -0.494D+01 0.684D+01-0.779D+01 0.326D+01-0.285D+01-0.212D+01
 Coeff:      0.859D+01
 Gap=     0.440 Goal=   None    Shift=    0.000
 Gap=     0.388 Goal=   None    Shift=    0.000
 RMSDP=4.16D-04 MaxDP=1.75D-02 DE= 1.10D-07 OVMax= 4.58D-02

 Cycle  58  Pass 1  IDiag  1:
 E= -435.116455529452     Delta-E=       -0.000000062814 Rises=F Damp=F
 DIIS: error= 1.57D-04 at cycle  58 NSaved=   8.
 NSaved= 8 IEnMin= 6 EnMin= -435.116455576820     IErMin= 7 ErrMin= 1.78D-06
 ErrMax= 1.57D-04  0.00D+00 EMaxC= 1.00D-01 BMatC= 7.51D-07 BMatP= 3.84D-11
 IDIUse=1 WtCom= 1.00D+00 WtEn= 0.00D+00
 Large coefficients: NSaved=  8 BigCof=   11.16 CofMax=   10.00 Det=-1.13D-14
 Inversion failed.  Reducing to  7 matrices.
 Coeff-Com: -0.865D+01 0.249D+01 0.389D+01 0.822D+01-0.924D+01 0.398D+01
 Coeff-Com:  0.307D+00
 Coeff:     -0.865D+01 0.249D+01 0.389D+01 0.822D+01-0.924D+01 0.398D+01
 Coeff:      0.307D+00
 Gap=     0.440 Goal=   None    Shift=    0.000
 Gap=     0.388 Goal=   None    Shift=    0.000
 RMSDP=4.74D-05 MaxDP=2.00D-03 DE=-6.28D-08 OVMax= 5.21D-03

 Cycle  59  Pass 1  IDiag  1:
 E= -435.116455452850     Delta-E=        0.000000076602 Rises=F Damp=F
 DIIS: error= 1.95D-04 at cycle  59 NSaved=   8.
 NSaved= 8 IEnMin= 5 EnMin= -435.116455576820     IErMin= 6 ErrMin= 1.78D-06
 ErrMax= 1.95D-04  0.00D+00 EMaxC= 1.00D-01 BMatC= 1.14D-06 BMatP= 3.84D-11
 IDIUse=1 WtCom= 1.00D+00 WtEn= 0.00D+00
 Coeff-Com: -0.874D+01 0.265D+01 0.366D+01 0.764D+01-0.826D+01 0.397D+01
 Coeff-Com: -0.313D+00 0.410D+00
 Coeff:     -0.874D+01 0.265D+01 0.366D+01 0.764D+01-0.826D+01 0.397D+01
 Coeff:     -0.313D+00 0.410D+00
 Gap=     0.440 Goal=   None    Shift=    0.000
 Gap=     0.388 Goal=   None    Shift=    0.000
 RMSDP=2.76D-06 MaxDP=1.16D-04 DE= 7.66D-08 OVMax= 3.03D-04

 Cycle  60  Pass 1  IDiag  1:
 E= -435.116455442782     Delta-E=        0.000000010068 Rises=F Damp=F
 DIIS: error= 1.99D-04 at cycle  60 NSaved=   9.
 NSaved= 9 IEnMin= 5 EnMin= -435.116455576820     IErMin= 6 ErrMin= 1.78D-06
 ErrMax= 1.99D-04  0.00D+00 EMaxC= 1.00D-01 BMatC= 1.19D-06 BMatP= 3.84D-11
 IDIUse=1 WtCom= 1.00D+00 WtEn= 0.00D+00
 Coeff-Com: -0.841D+01 0.243D+01 0.365D+01 0.745D+01-0.808D+01 0.385D+01
 Coeff-Com: -0.845D+00 0.725D+01-0.630D+01
 Coeff:     -0.841D+01 0.243D+01 0.365D+01 0.745D+01-0.808D+01 0.385D+01
 Coeff:     -0.845D+00 0.725D+01-0.630D+01
 Gap=     0.440 Goal=   None    Shift=    0.000
 Gap=     0.388 Goal=   None    Shift=    0.000
 RMSDP=1.23D-05 MaxDP=5.20D-04 DE= 1.01D-08 OVMax= 1.36D-03

 Cycle  61  Pass 1  IDiag  1:
 E= -435.116455447816     Delta-E=       -0.000000005034 Rises=F Damp=F
 DIIS: error= 1.98D-04 at cycle  61 NSaved=  10.
 NSaved=10 IEnMin= 5 EnMin= -435.116455576820     IErMin= 6 ErrMin= 1.78D-06
 ErrMax= 1.98D-04  0.00D+00 EMaxC= 1.00D-01 BMatC= 1.18D-06 BMatP= 3.84D-11
 IDIUse=1 WtCom= 1.00D+00 WtEn= 0.00D+00
 Large coefficients: NSaved= 10 BigCof=   34.05 CofMax=   10.00 Det=-5.32D-15
 Inversion failed.  Reducing to  9 matrices.
 Large coefficients: NSaved=  9 BigCof=   41.62 CofMax=   10.00 Det=-5.59D-15
 Inversion failed.  Reducing to  8 matrices.
 Large coefficients: NSaved=  8 BigCof=   42.78 CofMax=   10.00 Det=-7.33D-15
 Inversion failed.  Reducing to  7 matrices.
 Coeff-Com: -0.208D+01 0.718D+00 0.411D+01-0.810D+00-0.232D+01-0.325D+01
 Coeff-Com:  0.464D+01
 Coeff:     -0.208D+01 0.718D+00 0.411D+01-0.810D+00-0.232D+01-0.325D+01
 Coeff:      0.464D+01
 Gap=     0.440 Goal=   None    Shift=    0.000
 Gap=     0.388 Goal=   None    Shift=    0.000
 RMSDP=3.05D-04 MaxDP=1.28D-02 DE=-5.03D-09 OVMax= 3.35D-02

 Cycle  62  Pass 1  IDiag  1:
 E= -435.116455589935     Delta-E=       -0.000000142120 Rises=F Damp=F
 DIIS: error= 3.24D-06 at cycle  62 NSaved=   8.
 NSaved= 8 IEnMin= 8 EnMin= -435.116455589935     IErMin= 4 ErrMin= 1.78D-06
 ErrMax= 3.24D-06  0.00D+00 EMaxC= 1.00D-01 BMatC= 3.84D-10 BMatP= 1.06D-10
 IDIUse=1 WtCom= 1.00D+00 WtEn= 0.00D+00
 Coeff-Com: -0.166D+01-0.474D+01 0.730D+01-0.134D+01-0.185D+01-0.698D+01
 Coeff-Com:  0.780D+01 0.246D+01
 Coeff:     -0.166D+01-0.474D+01 0.730D+01-0.134D+01-0.185D+01-0.698D+01
 Coeff:      0.780D+01 0.246D+01
 Gap=     0.440 Goal=   None    Shift=    0.000
 Gap=     0.388 Goal=   None    Shift=    0.000
 RMSDP=4.56D-04 MaxDP=1.92D-02 DE=-1.42D-07 OVMax= 5.01D-02

 Cycle  63  Pass 1  IDiag  1:
 E= -435.116455521407     Delta-E=        0.000000068528 Rises=F Damp=F
 DIIS: error= 1.81D-04 at cycle  63 NSaved=   9.
 NSaved= 9 IEnMin= 8 EnMin= -435.116455589935     IErMin= 4 ErrMin= 1.78D-06
 ErrMax= 1.81D-04  0.00D+00 EMaxC= 1.00D-01 BMatC= 9.64D-07 BMatP= 1.06D-10
 IDIUse=1 WtCom= 1.00D+00 WtEn= 0.00D+00
 Coeff-Com: -0.134D+01-0.456D+01 0.676D+01-0.116D+01-0.103D+01-0.629D+01
 Coeff-Com:  0.622D+01 0.210D+01 0.300D+00
 Coeff:     -0.134D+01-0.456D+01 0.676D+01-0.116D+01-0.103D+01-0.629D+01
 Coeff:      0.622D+01 0.210D+01 0.300D+00
 Gap=     0.440 Goal=   None    Shift=    0.000
 Gap=     0.388 Goal=   None    Shift=    0.000
 RMSDP=9.05D-06 MaxDP=3.81D-04 DE= 6.85D-08 OVMax= 9.95D-04

 Cycle  64  Pass 1  IDiag  1:
 E= -435.116455555899     Delta-E=       -0.000000034491 Rises=F Damp=F
 DIIS: error= 1.66D-04 at cycle  64 NSaved=  10.
 NSaved=10 IEnMin= 8 EnMin= -435.116455589935     IErMin= 4 ErrMin= 1.78D-06
 ErrMax= 1.66D-04  0.00D+00 EMaxC= 1.00D-01 BMatC= 8.16D-07 BMatP= 1.06D-10
 IDIUse=1 WtCom= 1.00D+00 WtEn= 0.00D+00
 Coeff-Com: -0.138D+01-0.464D+01 0.693D+01-0.126D+01-0.107D+01-0.675D+01
 Coeff-Com:  0.669D+01 0.222D+01 0.800D+00-0.535D+00
 Coeff:     -0.138D+01-0.464D+01 0.693D+01-0.126D+01-0.107D+01-0.675D+01
 Coeff:      0.669D+01 0.222D+01 0.800D+00-0.535D+00
 Gap=     0.440 Goal=   None    Shift=    0.000
 Gap=     0.388 Goal=   None    Shift=    0.000
 RMSDP=3.61D-07 MaxDP=1.99D-05 DE=-3.45D-08 OVMax= 3.01D-05

 Cycle  65  Pass 1  IDiag  1:
 E= -435.116455533873     Delta-E=        0.000000022025 Rises=F Damp=F
 DIIS: error= 1.76D-04 at cycle  65 NSaved=  11.
 NSaved=11 IEnMin= 8 EnMin= -435.116455589935     IErMin= 4 ErrMin= 1.78D-06
 ErrMax= 1.76D-04  0.00D+00 EMaxC= 1.00D-01 BMatC= 9.12D-07 BMatP= 1.06D-10
 IDIUse=1 WtCom= 1.00D+00 WtEn= 0.00D+00
 Large coefficients: NSaved= 11 BigCof=   22.16 CofMax=   10.00 Det=-1.52D-15
 Inversion failed.  Reducing to 10 matrices.
 Large coefficients: NSaved= 10 BigCof=   22.23 CofMax=   10.00 Det=-5.81D-15
 Inversion failed.  Reducing to  9 matrices.
 Large coefficients: NSaved=  9 BigCof=   21.70 CofMax=   10.00 Det=-6.23D-15
 Inversion failed.  Reducing to  8 matrices.
 Large coefficients: NSaved=  8 BigCof=   20.98 CofMax=   10.00 Det=-6.46D-15
 Inversion failed.  Reducing to  7 matrices.
 Large coefficients: NSaved=  7 BigCof=   21.31 CofMax=   10.00 Det=-1.67D-14
 Inversion failed.  Reducing to  6 matrices.
 Large coefficients: NSaved=  6 BigCof=   19.29 CofMax=   10.00 Det=-4.31D-14
 Inversion failed.  Reducing to  5 matrices.
 Large coefficients: NSaved=  5 BigCof=   19.37 CofMax=   10.00 Det=-4.39D-14
 Inversion failed.  Reducing to  4 matrices.
 Large coefficients: NSaved=  4 BigCof=   19.42 CofMax=   10.00 Det=-4.44D-14
 Inversion failed.  Reducing to  3 matrices.
 Large coefficients: NSaved=  3 BigCof=   20.86 CofMax=   10.00 Det=-5.53D-14
 Inversion failed.  Reducing to  2 matrices.
 Large coefficients: NSaved=  2 BigCof=   18.48 CofMax=   10.00 Det=-2.67D-09
 Coeff-Com:  0.185D+02-0.175D+02
 Coeff:      0.185D+02-0.175D+02
 Gap=     0.440 Goal=   None    Shift=    0.000
 Gap=     0.388 Goal=   None    Shift=    0.000
 RMSDP=6.67D-06 MaxDP=3.67D-04 DE= 2.20D-08 OVMax= 5.55D-04

 Cycle  66  Pass 1  IDiag  1:
 E= -435.116455742916     Delta-E=       -0.000000209043 Rises=F Damp=F
 DIIS: error= 1.19D-07 at cycle  66 NSaved=   3.
 NSaved= 3 IEnMin= 3 EnMin= -435.116455742916     IErMin= 3 ErrMin= 1.19D-07
 ErrMax= 1.19D-07  0.00D+00 EMaxC= 1.00D-01 BMatC= 3.05D-13 BMatP= 8.16D-07
 IDIUse=1 WtCom= 1.00D+00 WtEn= 0.00D+00
 Coeff-Com: -0.279D+01 0.264D+01 0.115D+01
 Coeff:     -0.279D+01 0.264D+01 0.115D+01
 Gap=     0.440 Goal=   None    Shift=    0.000
 Gap=     0.388 Goal=   None    Shift=    0.000
 RMSDP=3.77D-09 MaxDP=1.45D-07 DE=-2.09D-07 OVMax= 3.41D-07

 SCF Done:  E(UHF) =  -435.116455743     A.U. after   66 cycles
            NFock= 66  Conv=0.38D-08     -V/T= 2.0036
 <Sx>= 0.0000 <Sy>= 0.0000 <Sz>= 0.5000 <S**2>= 0.7527 S= 0.5013
 <L.S>= 0.000000000000E+00
 KE= 4.335710485363D+02 PE=-1.301811266657D+03 EE= 2.957412881155D+02
 Annihilation of the first spin contaminant:
 S**2 before annihilation     0.7527,   after     0.7500
 Leave Link  502 at Sat Mar  4 13:41:54 2017, MaxMem=   655360000 cpu:         4.9
 (Enter /mnt/software/gaussian/g09/l801.exe)
 Range of M.O.s used for correlation:     1    75
 NBasis=    75 NAE=    21 NBE=    20 NFC=     0 NFV=     0
 NROrb=     75 NOA=    21 NOB=    20 NVA=    54 NVB=    55
 Leave Link  801 at Sat Mar  4 13:41:54 2017, MaxMem=   655360000 cpu:         0.1
 (Enter /mnt/software/gaussian/g09/l1002.exe)
 Minotr:  UHF open shell wavefunction.
          Direct CPHF calculation.
          Differentiating once with respect to electric field.
                with respect to dipole field.
          Electric field/nuclear overlap derivatives assumed to be zero.
          Requested convergence is 1.0D-08 RMS, and 1.0D-07 maximum.
          Secondary convergence is 1.0D-12 RMS, and 1.0D-12 maximum.
          NewPWx=F KeepS1=T KeepF1=T KeepIn=T MapXYZ=F SortEE=F KeepMc=T.
          MDV=     655359806 using IRadAn=       2.
 Keep R1 and R2 ints in memory in canonical form, NReq=8971488.
 FoFCou: FMM=F IPFlag=           0 FMFlag=           0 FMFlg1=           0
         NFxFlg=           0 DoJE=F BraDBF=F KetDBF=F FulRan=T
         wScrn=  0.000000 ICntrl=     600 IOpCl=  0 I1Cent=           0 NGrid=           0
         NMat0=    1 NMatS0=   2850 NMatT0=    0 NMatD0=    1 NMtDS0=    0 NMtDT0=    0
 Symmetry not used in FoFCou.
          Solving linear equations simultaneously, MaxMat=       0.
          There are     3 degrees of freedom in the 1st order CPHF.  IDoFFX=0 NUNeed=     3.
      3 vectors produced by pass  0 Test12= 7.45D-14 3.33D-08 XBig12= 5.13D+00 7.62D-01.
 AX will form     3 AO Fock derivatives at one time.
      3 vectors produced by pass  1 Test12= 7.45D-14 3.33D-08 XBig12= 3.78D-01 9.56D-02.
      3 vectors produced by pass  2 Test12= 7.45D-14 3.33D-08 XBig12= 5.08D-02 6.72D-02.
      3 vectors produced by pass  3 Test12= 7.45D-14 3.33D-08 XBig12= 2.53D-03 1.48D-02.
      3 vectors produced by pass  4 Test12= 7.45D-14 3.33D-08 XBig12= 5.78D-05 2.90D-03.
      3 vectors produced by pass  5 Test12= 7.45D-14 3.33D-08 XBig12= 1.70D-06 3.03D-04.
      3 vectors produced by pass  6 Test12= 7.45D-14 3.33D-08 XBig12= 6.48D-08 8.37D-05.
      3 vectors produced by pass  7 Test12= 7.45D-14 3.33D-08 XBig12= 2.22D-09 2.86D-05.
      3 vectors produced by pass  8 Test12= 7.45D-14 3.33D-08 XBig12= 8.93D-11 2.62D-06.
      3 vectors produced by pass  9 Test12= 7.45D-14 3.33D-08 XBig12= 3.07D-12 4.48D-07.
      3 vectors produced by pass 10 Test12= 7.45D-14 3.33D-08 XBig12= 1.18D-13 2.14D-07.
      1 vectors produced by pass 11 Test12= 7.45D-14 3.33D-08 XBig12= 1.37D-14 7.05D-08.
 InvSVY:  IOpt=1 It=  1 EMax= 4.44D-16
 Solved reduced A of dimension    34 with     3 vectors.
 End of Minotr F.D. properties file   721 does not exist.
 End of Minotr F.D. properties file   722 does not exist.
 End of Minotr F.D. properties file   788 does not exist.
 Leave Link 1002 at Sat Mar  4 13:41:54 2017, MaxMem=   655360000 cpu:         2.4
 (Enter /mnt/software/gaussian/g09/l1101.exe)
 Using compressed storage, NAtomX=     5.
 Will process      6 centers per pass.
 Leave Link 1101 at Sat Mar  4 13:41:55 2017, MaxMem=   655360000 cpu:         0.8
 (Enter /mnt/software/gaussian/g09/l1102.exe)
 Symmetrizing basis deriv contribution to polar:
 IMax=3 JMax=2 DiffMx= 0.00D+00
 Leave Link 1102 at Sat Mar  4 13:41:55 2017, MaxMem=   655360000 cpu:         0.1
 (Enter /mnt/software/gaussian/g09/l1110.exe)
 Forming Gx(P) for the SCF density, NAtomX=     5.
 Integral derivatives from FoFJK, PRISM(SPDF).
 Do as many integral derivatives as possible in FoFJK.
 G2DrvN: MDV=     655359856.
 G2DrvN: will do     6 centers at a time, making    1 passes.
 PxScal for G2LodP:  IOpCl= 1 ISclPx=1 IMOff=     1 NMtTot=     4 NTT=    2850 ScalPx= 1.00D+00
 Calling FoFCou, ICntrl=  3107 FMM=F I1Cent=   0 AccDes= 0.00D+00.
 FoFJK:  IHMeth= 1 ICntrl=    3107 DoSepK=F KAlg= 0 I1Cent=   0 FoldK=F
 IRaf=         0 NMat=   1 IRICut=       1 DoRegI=T DoRafI=F ISym2E= 0.
 FoFCou: FMM=F IPFlag=           0 FMFlag=      100000 FMFlg1=           0
         NFxFlg=           0 DoJE=F BraDBF=F KetDBF=F FulRan=T
         wScrn=  0.000000 ICntrl=    3107 IOpCl=  1 I1Cent=           0 NGrid=           0
         NMat0=    1 NMatS0=      1 NMatT0=    0 NMatD0=    4 NMtDS0=    3 NMtDT0=    0
 Symmetry not used in FoFCou.
 End of G2Drv F.D. properties file   721 does not exist.
 End of G2Drv F.D. properties file   722 does not exist.
 End of G2Drv F.D. properties file   788 does not exist.
 Leave Link 1110 at Sat Mar  4 13:41:55 2017, MaxMem=   655360000 cpu:         2.1
 (Enter /mnt/software/gaussian/g09/l1002.exe)
 Minotr:  UHF open shell wavefunction.
          IDoAtm=11111
          Direct CPHF calculation.
          Differentiating once with respect to electric field.
                with respect to dipole field.
          Differentiating once with respect to nuclear coordinates.
          Requested convergence is 1.0D-08 RMS, and 1.0D-07 maximum.
          Secondary convergence is 1.0D-12 RMS, and 1.0D-12 maximum.
          NewPWx=T KeepS1=F KeepF1=F KeepIn=T MapXYZ=F SortEE=F KeepMc=T.
          MDV=     655359796 using IRadAn=       2.
 Keep R1 and R2 ints in memory in canonical form, NReq=8971603.
 FoFCou: FMM=F IPFlag=           0 FMFlag=           0 FMFlg1=           0
         NFxFlg=           0 DoJE=F BraDBF=F KetDBF=F FulRan=T
         wScrn=  0.000000 ICntrl=     600 IOpCl=  0 I1Cent=           0 NGrid=           0
         NMat0=    1 NMatS0=   2850 NMatT0=    0 NMatD0=    1 NMtDS0=    0 NMtDT0=    0
 Symmetry not used in FoFCou.
          Solving linear equations simultaneously, MaxMat=       0.
          There are    18 degrees of freedom in the 1st order CPHF.  IDoFFX=5 NUNeed=    18.
 Will reuse    3 saved solutions.
     12 vectors produced by pass  0 Test12= 1.24D-14 5.56D-09 XBig12= 1.80D-01 8.30D-02.
 AX will form    12 AO Fock derivatives at one time.
     12 vectors produced by pass  1 Test12= 1.24D-14 5.56D-09 XBig12= 1.73D-02 5.86D-02.
     12 vectors produced by pass  2 Test12= 1.24D-14 5.56D-09 XBig12= 2.70D-03 1.22D-02.
     12 vectors produced by pass  3 Test12= 1.24D-14 5.56D-09 XBig12= 6.54D-05 1.96D-03.
     12 vectors produced by pass  4 Test12= 1.24D-14 5.56D-09 XBig12= 8.09D-07 1.76D-04.
      9 vectors produced by pass  5 Test12= 1.24D-14 5.56D-09 XBig12= 8.84D-09 1.82D-05.
      9 vectors produced by pass  6 Test12= 1.24D-14 5.56D-09 XBig12= 1.02D-10 1.42D-06.
      8 vectors produced by pass  7 Test12= 1.24D-14 5.56D-09 XBig12= 7.36D-13 1.19D-07.
      3 vectors produced by pass  8 Test12= 1.24D-14 5.56D-09 XBig12= 3.26D-15 9.71D-09.
 InvSVY:  IOpt=1 It=  1 EMax= 1.52D-14
 Solved reduced A of dimension    89 with    12 vectors.
 FullF1:  Do perturbations    1 to     3.
 Isotropic polarizability for W=    0.000000       12.30 Bohr**3.
 FullF1:  Do perturbations    1 to     6.
 End of Minotr F.D. properties file   721 does not exist.
 End of Minotr F.D. properties file   722 does not exist.
 End of Minotr F.D. properties file   788 does not exist.
 Leave Link 1002 at Sat Mar  4 13:41:56 2017, MaxMem=   655360000 cpu:         4.7
 (Enter /mnt/software/gaussian/g09/l601.exe)
 Copying SCF densities to generalized density rwf, IOpCl= 1 IROHF=0.

 **********************************************************************

            Population analysis using the SCF density.

 **********************************************************************

 Orbital symmetries:
 Alpha Orbitals:
       Occupied  (A) (A) (A) (A) (A) (A) (A) (A) (A) (A) (A) (A)
                 (A) (A) (A) (A) (A) (A) (A) (A) (A)
       Virtual   (A) (A) (A) (A) (A) (A) (A) (A) (A) (A) (A) (A)
                 (A) (A) (A) (A) (A) (A) (A) (A) (A) (A) (A) (A)
                 (A) (A) (A) (A) (A) (A) (A) (A) (A) (A) (A) (A)
                 (A) (A) (A) (A) (A) (A) (A) (A) (A) (A) (A) (A)
                 (A) (A) (A) (A) (A) (A)
 Beta  Orbitals:
       Occupied  (A) (A) (A) (A) (A) (A) (A) (A) (A) (A) (A) (A)
                 (A) (A) (A) (A) (A) (A) (A) (A)
       Virtual   (A) (A) (A) (A) (A) (A) (A) (A) (A) (A) (A) (A)
                 (A) (A) (A) (A) (A) (A) (A) (A) (A) (A) (A) (A)
                 (A) (A) (A) (A) (A) (A) (A) (A) (A) (A) (A) (A)
                 (A) (A) (A) (A) (A) (A) (A) (A) (A) (A) (A) (A)
                 (A) (A) (A) (A) (A) (A) (A)
 The electronic state is 2-A.
 Alpha  occ. eigenvalues --  -26.75806 -26.74276 -26.73906 -26.43842 -11.97835
 Alpha  occ. eigenvalues --   -2.13533  -2.03284  -2.01739  -1.69224  -1.31889
 Alpha  occ. eigenvalues --   -1.21137  -1.20730  -1.15786  -1.05726  -1.05402
 Alpha  occ. eigenvalues --   -1.03260  -1.02579  -1.01538  -0.86047  -0.75259
 Alpha  occ. eigenvalues --   -0.75256
 Alpha virt. eigenvalues --   -0.31260   0.04742   0.10087   0.11781   0.33531
 Alpha virt. eigenvalues --    0.35580   0.37422   0.40107   1.00239   1.01705
 Alpha virt. eigenvalues --    1.03065   1.03383   1.05050   1.07553   1.28342
 Alpha virt. eigenvalues --    1.28733   1.29857   1.30156   1.30564   1.32000
 Alpha virt. eigenvalues --    1.32769   1.39603   1.39612   1.42389   1.60800
 Alpha virt. eigenvalues --    1.64359   1.72325   1.75335   1.77642   1.81226
 Alpha virt. eigenvalues --    1.82025   1.82741   1.88397   1.95546   1.99789
 Alpha virt. eigenvalues --    2.00317   2.02042   2.02046   2.04951   2.07458
 Alpha virt. eigenvalues --    2.07458   2.42398   2.43719   2.47022   2.76728
 Alpha virt. eigenvalues --    2.80806   3.06082   3.07792   3.11912   3.66121
 Alpha virt. eigenvalues --    4.19989   4.35126   4.40114   4.60360
  Beta  occ. eigenvalues --  -26.75806 -26.74276 -26.73906 -26.39067 -11.97835
  Beta  occ. eigenvalues --   -2.13533  -2.03284  -2.01739  -1.50032  -1.31889
  Beta  occ. eigenvalues --   -1.21137  -1.20730  -1.15786  -1.05726  -1.05402
  Beta  occ. eigenvalues --   -1.03260  -1.02579  -1.01538  -0.70094  -0.70091
  Beta virt. eigenvalues --   -0.31260   0.04742   0.05636   0.10087   0.11781
  Beta virt. eigenvalues --    0.33531   0.35580   0.37422   0.40107   1.00239
  Beta virt. eigenvalues --    1.01705   1.03383   1.05050   1.06295   1.07553
  Beta virt. eigenvalues --    1.28342   1.28733   1.29857   1.30156   1.30564
  Beta virt. eigenvalues --    1.32000   1.42129   1.42137   1.42389   1.55119
  Beta virt. eigenvalues --    1.60800   1.64359   1.72325   1.75335   1.77642
  Beta virt. eigenvalues --    1.81226   1.82025   1.82741   1.88397   1.95546
  Beta virt. eigenvalues --    1.99789   2.04951   2.08132   2.08132   2.10923
  Beta virt. eigenvalues --    2.10928   2.12027   2.42398   2.43719   2.47022
  Beta virt. eigenvalues --    2.76728   2.80806   3.06082   3.07792   3.11912
  Beta virt. eigenvalues --    3.70421   4.19989   4.35126   4.40114   4.60360
          Condensed to atoms (all electrons):
               1          2          3          4          5
     1  C    3.526825   0.399222   0.367734   0.000000   0.369348
     2  F    0.399222   8.745235  -0.031390   0.000000  -0.038067
     3  F    0.367734  -0.031390   8.820441   0.000000  -0.025196
     4  F    0.000000   0.000000   0.000000   9.000000   0.000000
     5  F    0.369348  -0.038067  -0.025196   0.000000   8.824199
          Atomic-Atomic Spin Densities.
               1          2          3          4          5
     1  C    0.000000   0.000000   0.000000   0.000000   0.000000
     2  F    0.000000   0.000000   0.000000   0.000000   0.000000
     3  F    0.000000   0.000000   0.000000   0.000000   0.000000
     4  F    0.000000   0.000000   0.000000   1.000000   0.000000
     5  F    0.000000   0.000000   0.000000   0.000000   0.000000
 Mulliken charges and spin densities:
               1          2
     1  C    1.336872   0.000000
     2  F   -0.075000   0.000000
     3  F   -0.131588   0.000000
     4  F    0.000000   1.000000
     5  F   -0.130284   0.000000
 Sum of Mulliken charges =   1.00000   1.00000
 Mulliken charges and spin densities with hydrogens summed into heavy atoms:
               1          2
     1  C    1.336872   0.000000
     2  F   -0.075000   0.000000
     3  F   -0.131588   0.000000
     4  F    0.000000   1.000000
     5  F   -0.130284   0.000000
 APT charges:
               1
     1  C    1.938271
     2  F   -0.335675
     3  F   -0.296705
     4  F    0.000001
     5  F   -0.305892
 Sum of APT charges =   1.00000
 APT charges with hydrogens summed into heavy atoms:
               1
     1  C    1.938271
     2  F   -0.335675
     3  F   -0.296705
     4  F    0.000001
     5  F   -0.305892
 Electronic spatial extent (au):  <R**2>=           5316.3358
 Charge=              1.0000 electrons
 Dipole moment (field-independent basis, Debye):
    X=             14.1939    Y=             -0.0950    Z=             -1.3764  Tot=             14.2608
 Quadrupole moment (field-independent basis, Debye-Ang):
   XX=             20.9818   YY=            -21.1023   ZZ=            -19.8690
   XY=             -0.2886   XZ=             -3.8545   YZ=             -0.3875
 Traceless Quadrupole moment (field-independent basis, Debye-Ang):
   XX=             27.6450   YY=            -14.4392   ZZ=            -13.2058
   XY=             -0.2886   XZ=             -3.8545   YZ=             -0.3875
 Octapole moment (field-independent basis, Debye-Ang**2):
  XXX=            131.1475  YYY=              0.5934  ZZZ=             -0.1262  XYY=             -1.0099
  XXY=             -1.3989  XXZ=            -10.8309  XZZ=             -2.5439  YZZ=             -0.1079
  YYZ=              0.8714  XYZ=              4.6552
 Hexadecapole moment (field-independent basis, Debye-Ang**3):
 XXXX=          -4121.0277 YYYY=            -72.6551 ZZZZ=            -21.7493 XXXY=             -9.9720
 XXXZ=            -28.6868 YYYX=              2.2283 YYYZ=              0.2436 ZZZX=              0.4350
 ZZZY=             -0.3377 XXYY=           -740.4244 XXZZ=           -679.3420 YYZZ=            -15.7768
 XXYZ=            -47.0735 YYXZ=              2.1585 ZZXY=             -0.7432
 N-N= 1.373824742627D+02 E-N=-1.301811266232D+03  KE= 4.335710485363D+02
  Exact polarizability:  12.639   0.421  14.029  -1.556  -0.134  10.220
 Approx polarizability:  11.911   0.402  13.052  -1.176  -0.134  10.125
                          Isotropic Fermi Contact Couplings
        Atom                 a.u.       MegaHertz       Gauss      10(-4) cm-1
     1  C(13)              0.00000       0.00000       0.00000       0.00000
     2  F(19)              0.00000       0.00000       0.00000       0.00000
     3  F(19)              0.00000       0.00000       0.00000       0.00000
     4  F(19)              0.06931     291.62412     104.05873      97.27534
     5  F(19)              0.00000       0.00000       0.00000       0.00000
 --------------------------------------------------------
       Center         ----  Spin Dipole Couplings  ----
                      3XX-RR        3YY-RR        3ZZ-RR
 --------------------------------------------------------
     1   Atom        0.000104     -0.000052     -0.000052
     2   Atom        0.000081     -0.000041     -0.000041
     3   Atom        0.000119     -0.000059     -0.000060
     4   Atom       -2.911152     -0.383988      3.295140
     5   Atom        0.000103     -0.000051     -0.000052
 --------------------------------------------------------
                        XY            XZ            YZ
 --------------------------------------------------------
     1   Atom        0.000000     -0.000002      0.000000
     2   Atom       -0.000003     -0.000003      0.000000
     3   Atom       -0.000012      0.000006     -0.000001
     4   Atom       -0.036391      0.057024     -3.960943
     5   Atom        0.000013      0.000003      0.000000
 --------------------------------------------------------


 ---------------------------------------------------------------------------------
              Anisotropic Spin Dipole Couplings in Principal Axis System
 ---------------------------------------------------------------------------------

       Atom             a.u.   MegaHertz   Gauss  10(-4) cm-1        Axes

[...]
                                                             IR Spectrum
 
     1                   1                                                                                                           
     5                   3                            9        8                  6  5                              2  1             
     8                   5                            8        6                  2  9                              0  7             
     9                   1                            0        5                  6  2                              5  1             
 
     X                   X                            X        X                  X  X                              X  X             
     X                   X                            X        X                                                                     
     X                   X                            X                                                                              
     X                   X                                                                                                           
     X                   X                                                                                                           
     X                   X                                                                                                           
     X                   X                                                                                                           
     X                   X                                                                                                           
     X                   X                                                                                                           
     X                   X                                                                                                           
     X                   X                                                                                                           
     X                   X                                                                                                           
     X                   X                                                                                                           
     X                   X                                                                                                           
     X                   X                                                                                                           
     X                   X                                                                                                           
     X                   X                                                                                                           
     X                   X                                                                                                           
     X                   X                                                                                                           
     X                                                                                                                               
 
 
                                                          Distorted Ethanol
                                                            Raman Spectrum
 
     1                   1                                                                                                           
     5                   3                            9        8                  6  5                              2  1             
     8                   5                            8        6                  2  9                              0  7             
     9                   1                            0        5                  6  2                              5  1             
 
     X                   X                            X        X                  X  X                              X  X             
     X                   X                            X        X                  X  X                                               
     X                   X                            X        X                  X  X                                               
                         X                            X                           X  X                                               
                                                      X                                                                              
                                                      X                                                                              
                                                      X                                                                              
                                                      X                                                                              
                                                      X                                                                              
                                                      X                                                                              
                                                      X                                                                              
                                                      X                                                                              
                                                      X                                                                              
                                                      X                                                                              
                                                      X                                                                              
                                                      X                                                                              
                                                      X                                                                              
                                                      X                                                                              
                                                      X                                                                              
                                                      X                                                                              
 
 Forces in standard orientation:
 -------------------------------------------------------------------
 Center     Atomic                   Forces (Hartrees/Bohr)
 Number     Number              X              Y              Z
 -------------------------------------------------------------------
      1        6          -0.041956326   -0.012220456   -0.176980781
      2        9           0.042936774    0.000808963    0.039442768
      3        9          -0.027182554   -0.065407237    0.079187890
      4        9          -0.000002067   -0.000000006    0.000000053
      5        9           0.026204173    0.076818736    0.058350071
 -------------------------------------------------------------------
 ***** Axes restored to original set *****
 Rotating derivatives, DoTrsp=F IDiff=-2 LEDeriv=    772 LFDPrp=       0 LDFDPr=       0.
 -------------------------------------------------------------------
 Center     Atomic                   Forces (Hartrees/Bohr)
 Number     Number              X              Y              Z
 -------------------------------------------------------------------
      1        6          -0.135799890    0.118365004   -0.027928219
      2        9           0.014392535   -0.053422847    0.018406718
      3        9           0.066831123   -0.042104308   -0.071053135
      4        9           0.000000996    0.000001593   -0.000000863
      5        9           0.054575237   -0.022839442    0.080575499
 -------------------------------------------------------------------
 Cartesian Forces:  Max     0.135799890 RMS     0.062135363
 Z-matrix is all fixed cartesians, so copy forces.
 Force constants in Cartesian coordinates: 
                1             2             3             4             5 
      1  0.617500D+00
      2  0.265152D+00  0.571975D+00
      3 -0.447255D-01  0.138959D-01  0.650059D+00
      4 -0.289166D+00 -0.207959D+00  0.386908D-01  0.354193D+00
      5 -0.234154D+00 -0.334328D+00  0.403948D-01  0.306472D+00  0.350820D+00
      6  0.446117D-01  0.417963D-01 -0.119385D+00 -0.496673D-01 -0.372103D-01
      7 -0.165033D+00 -0.139069D-01  0.909860D-01 -0.301699D-01 -0.239335D-01
      8 -0.298264D-02 -0.111896D+00 -0.163520D-01 -0.381269D-01  0.413074D-02
      9  0.743085D-01  0.566520D-02 -0.264437D+00  0.491814D-01  0.205035D-01
     10  0.000000D+00  0.000000D+00  0.000000D+00  0.000000D+00  0.000000D+00
     11  0.000000D+00  0.000000D+00  0.000000D+00  0.000000D+00  0.000000D+00
     12  0.000000D+00  0.000000D+00  0.000000D+00  0.000000D+00  0.000000D+00
     13 -0.163302D+00 -0.432863D-01 -0.849512D-01 -0.348571D-01 -0.483840D-01
     14 -0.280158D-01 -0.125751D+00 -0.379384D-01 -0.603856D-01 -0.206220D-01
     15 -0.741947D-01 -0.613571D-01 -0.266237D+00 -0.382049D-01 -0.236881D-01
                6             7             8             9            10 
      6  0.128809D+00
      7  0.519186D-01  0.175124D+00
      8  0.355003D-01  0.359878D-01  0.872859D-01
      9 -0.134405D-01 -0.134790D+00 -0.792212D-02  0.343017D+00
     10  0.000000D+00  0.000000D+00  0.000000D+00  0.000000D+00  0.000000D+00
     11  0.000000D+00  0.000000D+00  0.000000D+00  0.000000D+00  0.000000D+00
     12  0.000000D+00  0.000000D+00  0.000000D+00  0.000000D+00  0.000000D+00
     13 -0.468630D-01  0.200792D-01  0.512173D-02  0.113004D-01  0.000000D+00
     14 -0.400864D-01  0.185277D-02  0.204789D-01 -0.182467D-01  0.000000D+00
     15  0.401590D-02 -0.811426D-02 -0.112262D-01 -0.651397D-01  0.000000D+00
               11            12            13            14            15 
     11  0.000000D+00
     12  0.000000D+00  0.000000D+00
     13  0.000000D+00  0.000000D+00  0.178079D+00
     14  0.000000D+00  0.000000D+00  0.865487D-01  0.125894D+00
     15  0.000000D+00  0.000000D+00  0.120514D+00  0.962714D-01  0.327361D+00
 Final forces over variables, Energy=-4.35116456D+02:
 -1.35799890D-01 1.43925350D-02 6.68311226D-02 9.96286820D-07
  5.45752365D-02 1.18365004D-01-5.34228471D-02-4.21043083D-02
  1.59322722D-06-2.28394418D-02-2.79282187D-02 1.84067178D-02
 -7.10531354D-02-8.62674747D-07 8.05754990D-02
 Leave Link  716 at Sat Mar  4 13:41:57 2017, MaxMem=   655360000 cpu:         0.1
 (Enter /mnt/software/gaussian/g09/l103.exe)

 GradGradGradGradGradGradGradGradGradGradGradGradGradGradGradGradGradGrad
 Berny optimization.
 Search for a local minimum.
 Step number   1 out of a maximum of    2
 All quantities printed in internal units (Hartrees-Bohrs-Radians)
 Second derivative matrix not updated -- analytic derivatives used.
 The second derivative matrix:
                          X1        Y1        Z1        X2        Y2
           X1           0.61750
           Y1           0.26515   0.57197
           Z1          -0.04473   0.01390   0.65006
           X2          -0.28917  -0.20796   0.03869   0.35419
           Y2          -0.23415  -0.33433   0.04039   0.30647   0.35082
           Z2           0.04461   0.04180  -0.11938  -0.04967  -0.03721
           X3          -0.16503  -0.01391   0.09099  -0.03017  -0.02393
           Y3          -0.00298  -0.11190  -0.01635  -0.03813   0.00413
           Z3           0.07431   0.00567  -0.26444   0.04918   0.02050
           X4           0.00000   0.00000   0.00000   0.00000   0.00000
           Y4           0.00000   0.00000   0.00000   0.00000   0.00000
           Z4           0.00000   0.00000   0.00000   0.00000   0.00000
           X5          -0.16330  -0.04329  -0.08495  -0.03486  -0.04838
           Y5          -0.02802  -0.12575  -0.03794  -0.06039  -0.02062
           Z5          -0.07419  -0.06136  -0.26624  -0.03820  -0.02369
                          Z2        X3        Y3        Z3        X4
           Z2           0.12881
           X3           0.05192   0.17512
           Y3           0.03550   0.03599   0.08729
           Z3          -0.01344  -0.13479  -0.00792   0.34302
           X4           0.00000   0.00000   0.00000   0.00000   0.00000
           Y4           0.00000   0.00000   0.00000   0.00000   0.00000
           Z4           0.00000   0.00000   0.00000   0.00000   0.00000
           X5          -0.04686   0.02008   0.00512   0.01130   0.00000
           Y5          -0.04009   0.00185   0.02048  -0.01825   0.00000
           Z5           0.00402  -0.00811  -0.01123  -0.06514   0.00000
                          Y4        Z4        X5        Y5        Z5
           Y4           0.00000
           Z4           0.00000   0.00000
           X5           0.00000   0.00000   0.17808
           Y5           0.00000   0.00000   0.08655   0.12589
           Z5           0.00000   0.00000   0.12051   0.09627   0.32736
 ITU=  0
     Eigenvalues ---    0.00000   0.02093   0.03007   0.24402   0.27402
     Eigenvalues ---    0.40853   0.61642   0.93517   1.32633
 Eigenvalue     1 is  -3.95D-07 should be greater than     0.000000 Eigenvector:
                          Y4        X4        Z4        Y1        Y2
   1                    0.69755   0.40452  -0.36651  -0.18277  -0.18277
                          Y5        Y3        X1        X3        X5
   1                   -0.18277  -0.18277  -0.10599  -0.10599  -0.10599
 Quadratic step=5.819D+00 exceeds max=3.000D-01 adjusted using Lamda=-3.210D-01.
 Angle between NR and scaled steps=  84.78 degrees.
 Angle between quadratic step and forces=   9.43 degrees.
 Linear search not attempted -- first point.
 TrRot=  0.004548 -0.006662  0.001951 -0.450214 -0.000179  0.449870
 Variable       Old X    -DE/DX   Delta X   Delta X   Delta X     New X
                                 (Linear)    (Quad)   (Total)
    X1        1.56994  -0.13580   0.00000  -0.16963  -0.16165   1.40830
    Y1        8.62154   0.11837   0.00000   0.17151   0.16417   8.78570
    Z1       -2.52665  -0.02793   0.00000  -0.03806  -0.03657  -2.56322
    X2        3.08217   0.01439   0.00000   0.03425   0.04280   3.12497
    Y2       10.38174  -0.05342   0.00000  -0.05079  -0.05874  10.32299
    Z2       -2.86508   0.01841   0.00000   0.02505   0.02669  -2.83839
    X3        0.26533   0.06683   0.00000   0.06183   0.06945   0.33478
    Y3        8.74406  -0.04210   0.00000  -0.05477  -0.06159   8.68247
    Z3       -0.43459  -0.07105   0.00000  -0.08655  -0.08522  -0.51981
    X4      -11.01492   0.00000   0.00000   0.00152   0.00046 -11.01445
    Y4      -12.28325   0.00000   0.00000   0.00212  -0.00009 -12.28334
    Z4        8.55716   0.00000   0.00000  -0.00106   0.00007   8.55723
    X5        0.35535   0.05458   0.00000   0.04091   0.04893   0.40428
    Y5        8.04182  -0.02284   0.00000  -0.03660  -0.04375   7.99807
    Z5       -4.58396   0.08058   0.00000   0.09364   0.09503  -4.48894
         Item               Value     Threshold  Converged?
 Maximum Force            0.135800     0.000450     NO 
 RMS     Force            0.062135     0.000300     NO 
 Maximum Displacement     0.164168     0.001800     NO 
 RMS     Displacement     0.077301     0.001200     NO 
 Predicted change in Energy=-5.010128D-02
 GradGradGradGradGradGradGradGradGradGradGradGradGradGradGradGradGradGrad

 Leave Link  103 at Sat Mar  4 13:41:57 2017, MaxMem=   655360000 cpu:         0.1
 (Enter /mnt/software/gaussian/g09/l9999.exe)

 Test job not archived.
 1\1\GINC-TP-LINUX1\Freq\UHF\6-31G(d)\C1F4(1+,2)\THOMAS\04-Mar-2017\0\\
 #P UHF/6-31g* IOP(7/33=1) IOP(7/8=11) Freq\\Distorted Ethanol\\1,2\C,0
 .830779,4.56232,-1.337046\F,1.631012,5.493778,-1.516135\F,0.140405,4.6
 27156,-0.229976\F,-5.828842,-6.500015,4.528255\F,0.188044,4.255547,-2.
 425728\\Version=ES64L-G09RevD.01\State=2-A\HF=-435.1164557\S2=0.752673
 \S2-1=0.\S2A=0.750003\RMSD=3.772e-09\RMSF=6.214e-02\ZeroPoint=0.014532
 7\Thermal=0.0189506\Dipole=3.0459237,4.1218337,-2.2830134\DipoleDeriv=
 1.9254711,0.5149764,-0.0910988,0.5340553,1.6663245,0.1070658,-0.096738
 9,0.1074459,2.2230164,-0.4005478,-0.2467563,0.0364178,-0.4247136,-0.38
 02593,0.0171776,0.0850928,0.0330058,-0.2262178,-0.2622,-0.1010921,0.21
 79541,-0.0296787,-0.1235589,-0.0838049,0.1454852,0.0553187,-0.5043559,
 0.0000279,-0.0000948,0.0000473,-0.0000942,-0.0000653,0.000082,0.000047
 7,0.0000821,0.0000418,-0.2627512,-0.1670332,-0.1633204,-0.0795688,-0.1
 624409,-0.0405206,-0.1338868,-0.1958526,-0.4924844\Polar=12.008349,1.6
 860141,10.7661182,-0.5261129,0.5927596,14.1127342\PolarDeriv=2.5929969
 ,-1.0909695,0.1599692,0.1601913,0.3124302,1.905861,-1.2203267,0.381659
 2,-3.2884659,0.2718982,0.2345293,-1.1636047,0.1948736,0.262589,0.24580
 54,1.8385266,-1.1078941,0.7432698,2.6827863,1.8621145,1.1323249,-0.368
 2579,-0.1090071,0.6392462,1.3907795,1.6046339,3.6144127,-0.0716151,-0.
 2576755,1.1392427,-0.2874509,-0.0676797,-0.2147397,1.3087189,1.2957012
 ,-0.7154547,-2.7790313,-0.0724177,-0.6297064,2.0234403,-0.0175998,-1.3
 553602,0.0999242,-0.9521493,0.4044837,0.1697497,1.4616296,0.4548075,1.
 2187466,0.08687,0.6075822,-1.7395005,0.4695543,5.3410583,0.0004484,0.0
 0019,-0.0008757,-0.0005185,-0.0002679,0.0004076,-0.0006037,-0.0000493,
 0.0011476,0.0003767,-0.0000362,-0.0004793,-0.0005106,-0.0002785,0.0006
 67,0.0003907,0.0000788,-0.0001316,-2.4972003,-0.6989173,-0.661712,-1.8
 148552,-0.1855553,-1.1901547,-0.2697734,-1.0340945,-0.7315781,-0.37040
 94,-1.4384472,-0.4299662,-1.1256587,-0.2815008,-0.6393149,-1.4081356,-
 0.6574402,-5.3687417\HyperPolar=8.1903513,-4.7640726,-3.9106574,-10.11
 14986,0.088995,2.6881094,1.3955483,11.074353,-3.2351399,2.0787564\PG=C
 01 [X(C1F4)]\NImag=1\\0.61750043,0.26515198,0.57197476,-0.04472555,0.0
 1389593,0.65005887,-0.28916560,-0.20795902,0.03869078,0.35419268,-0.23
 415399,-0.33432820,0.04039483,0.30647155,0.35081958,0.04461174,0.04179
 631,-0.11938466,-0.04966733,-0.03721027,0.12880925,-0.16503328,-0.0139
 0694,0.09098605,-0.03016994,-0.02393349,0.05191861,0.17512399,-0.00298
 264,-0.11189553,-0.01635198,-0.03812685,0.00413074,0.03550030,0.035987
 80,0.08728587,0.07430855,0.00566520,-0.26443699,0.04918142,0.02050348,
 -0.01344050,-0.13479038,-0.00792212,0.34301714,-0.00000004,0.00000033,
 -0.00000004,-0.00000003,-0.00000006,0.,0.00000002,-0.00000004,-0.00000
 002,0.00000003,0.00000049,0.00000020,-0.00000042,-0.00000010,-0.000000
 09,0.00000007,-0.00000013,0.00000002,0.00000017,-0.00000019,-0.0000001
 2,-0.00000009,-0.00000032,-0.00000014,0.00000005,0.00000008,0.00000001
 ,-0.00000002,0.00000004,0.00000004,0.00000005,0.00000016,0.00000003,-0
 .16330152,-0.04328634,-0.08495125,-0.03485711,-0.04838400,-0.04686302,
 0.02007920,0.00512173,0.01130043,0.00000002,-0.00000007,0.00000001,0.1
 7807941,-0.02801584,-0.12575122,-0.03793835,-0.06038558,-0.02062203,-0
 .04008640,0.00185277,0.02047890,-0.01824673,-0.00000004,-0.00000001,0.
 00000004,0.08654868,0.12589437,-0.07419465,-0.06135712,-0.26623709,-0.
 03820492,-0.02368811,0.00401590,-0.00811426,-0.01122623,-0.06513970,0.
 ,0.00000003,0.00000004,0.12051382,0.09627144,0.32736085\\0.13579989,-0
 .11836500,0.02792822,-0.01439253,0.05342285,-0.01840672,-0.06683112,0.
 04210431,0.07105314,-0.00000100,-0.00000159,0.00000086,-0.05457524,0.0
 2283944,-0.08057550\\\@


 TIME IS NATURE'S WAY OF MAKING SURE EVERYTHING
 DOESN'T HAPPEN AT ONCE.
                     - WOODY ALLEN
 Job cpu time:       0 days  0 hours  0 minutes 23.4 seconds.
 File lengths (MBytes):  RWF=     12 Int=      0 D2E=      0 Chk=      2 Scr=      1
 Normal termination of Gaussian 09 at Sat Mar  4 13:41:57 2017.
