 Entering Gaussian System, Link 0=g09
 Input=/home/thomas/cf4_xas/dd_data/gwp1_V1_dd_data.com
 Output=/home/thomas/cf4_xas/dd_data/gwp1_V1_dd_data.log
 Initial command:
 /mnt/software/gaussian/g09/l1.exe "/scratch/Gau-7252.inp" -scrdir="/scratch/"
 Entering Link 1 = /mnt/software/gaussian/g09/l1.exe PID=      7254.
  
 Copyright (c) 1988,1990,1992,1993,1995,1998,2003,2009,2013,
            Gaussian, Inc.  All Rights Reserved.
  
 This is part of the Gaussian(R) 09 program.  It is based on
 the Gaussian(R) 03 system (copyright 2003, Gaussian, Inc.),
 the Gaussian(R) 98 system (copyright 1998, Gaussian, Inc.),
 the Gaussian(R) 94 system (copyright 1995, Gaussian, Inc.),
 the Gaussian 92(TM) system (copyright 1992, Gaussian, Inc.),
 the Gaussian 90(TM) system (copyright 1990, Gaussian, Inc.),
 the Gaussian 88(TM) system (copyright 1988, Gaussian, Inc.),
 the Gaussian 86(TM) system (copyright 1986, Carnegie Mellon
 University), and the Gaussian 82(TM) system (copyright 1983,
 Carnegie Mellon University). Gaussian is a federally registered
 trademark of Gaussian, Inc.
  
 This software contains proprietary and confidential information,
 including trade secrets, belonging to Gaussian, Inc.
  
 This software is provided under written license and may be
 used, copied, transmitted, or stored only in accord with that
 written license.
  
 The following legend is applicable only to US Government
 contracts under FAR:
  
                    RESTRICTED RIGHTS LEGEND
  
 Use, reproduction and disclosure by the US Government is
 subject to restrictions as set forth in subparagraphs (a)
 and (c) of the Commercial Computer Software - Restricted
 Rights clause in FAR 52.227-19.
  
 Gaussian, Inc.
 340 Quinnipiac St., Bldg. 40, Wallingford CT 06492
  
  
 ---------------------------------------------------------------
 Warning -- This program may not be used in any manner that
 competes with the business of Gaussian, Inc. or will provide
 assistance to any competitor of Gaussian, Inc.  The licensee
 of this program is prohibited from giving any competitor of
 Gaussian, Inc. access to this program.  By using this program,
 the user acknowledges that Gaussian, Inc. is engaged in the
 business of creating and licensing software in the field of
 computational chemistry and represents and warrants to the
 licensee that it is not a competitor of Gaussian, Inc. and that
 it will not use this program in any manner prohibited above.
 ---------------------------------------------------------------
  

 Cite this work as:
 Gaussian 09, Revision D.01,
 M. J. Frisch, G. W. Trucks, H. B. Schlegel, G. E. Scuseria, 
 M. A. Robb, J. R. Cheeseman, G. Scalmani, V. Barone, B. Mennucci, 
 G. A. Petersson, H. Nakatsuji, M. Caricato, X. Li, H. P. Hratchian, 
 A. F. Izmaylov, J. Bloino, G. Zheng, J. L. Sonnenberg, M. Hada, 
 M. Ehara, K. Toyota, R. Fukuda, J. Hasegawa, M. Ishida, T. Nakajima, 
 Y. Honda, O. Kitao, H. Nakai, T. Vreven, J. A. Montgomery, Jr., 
 J. E. Peralta, F. Ogliaro, M. Bearpark, J. J. Heyd, E. Brothers, 
 K. N. Kudin, V. N. Staroverov, T. Keith, R. Kobayashi, J. Normand, 
 K. Raghavachari, A. Rendell, J. C. Burant, S. S. Iyengar, J. Tomasi, 
 M. Cossi, N. Rega, J. M. Millam, M. Klene, J. E. Knox, J. B. Cross, 
 V. Bakken, C. Adamo, J. Jaramillo, R. Gomperts, R. E. Stratmann, 
 O. Yazyev, A. J. Austin, R. Cammi, C. Pomelli, J. W. Ochterski, 
 R. L. Martin, K. Morokuma, V. G. Zakrzewski, G. A. Voth, 
 P. Salvador, J. J. Dannenberg, S. Dapprich, A. D. Daniels, 
 O. Farkas, J. B. Foresman, J. V. Ortiz, J. Cioslowski, 
 and D. J. Fox, Gaussian, Inc., Wallingford CT, 2013.
 
 ******************************************
 Gaussian 09:  ES64L-G09RevD.01 24-Apr-2013
                22-Mar-2017 
 ******************************************
 %mem=5000MB
 %Nprocshared=1
 Will use up to    1 processors via shared memory.
 %chk=gwp1_V1_dd_data.chk
 ------------------------------------------------------------
 #P UHF/6-31g* SCF(XQC,Conver=7) IOP(7/33=1) IOP(7/8=11) Freq
 ------------------------------------------------------------
 1/10=4,30=1,38=1/1,3;
 2/12=2,17=6,18=5,40=1/2;
 3/5=1,6=6,7=1,11=2,16=1,25=1,30=1,71=2,116=2,140=1/1,2,3;
 4//1;
 5/5=2,6=7,8=3,13=1,38=5,98=1/2,8;
 8/6=4,10=90,11=11/1;
 10/13=10,15=4/2;
 11/6=3,8=1,9=11,15=111,16=1/1,2,10;
 10/6=1/2;
 6/7=2,8=2,9=2,10=2,18=1,28=1/1;
 7/8=11,10=1,25=1,33=1/1,2,3,16;
 1/10=4,30=1/3;
 99//99;
 Leave Link    1 at Wed Mar 22 15:42:35 2017, MaxMem=   655360000 cpu:         0.0
 (Enter /mnt/software/gaussian/g09/l101.exe)
 ----
 CF4+
 ----
 Symbolic Z-matrix:
 Charge =  1 Multiplicity = 2
 6                     0.12111   4.78617  -1.0477 
 9                     1.32789   4.52341  -0.90244 
 9                    -0.33955   5.51209  -0.15041 
 9                    -4.1355   -7.34498   3.90813 
 9                    -0.16841   5.1692   -2.19352 
 
 NAtoms=      5 NQM=        5 NQMF=       0 NMMI=      0 NMMIF=      0
                NMic=       0 NMicF=      0.
                    Isotopes and Nuclear Properties:
 (Nuclear quadrupole moments (NQMom) in fm**2, nuclear magnetic moments (NMagM)
  in nuclear magnetons)

  Atom         1           2           3           4           5
 IAtWgt=          12          19          19          19          19
 AtmWgt=  12.0000000  18.9984033  18.9984033  18.9984033  18.9984033
 NucSpn=           0           1           1           1           1
 AtZEff=   0.0000000   0.0000000   0.0000000   0.0000000   0.0000000
 NQMom=    0.0000000   0.0000000   0.0000000   0.0000000   0.0000000
 NMagM=    0.0000000   2.6288670   2.6288670   2.6288670   2.6288670
 AtZNuc=   6.0000000   9.0000000   9.0000000   9.0000000   9.0000000
 Leave Link  101 at Wed Mar 22 15:42:35 2017, MaxMem=   655360000 cpu:         0.1
 (Enter /mnt/software/gaussian/g09/l103.exe)

 GradGradGradGradGradGradGradGradGradGradGradGradGradGradGradGradGradGrad
 Berny optimization.
 Initialization pass.
 Trust Radius=3.00D-01 FncErr=1.00D-07 GrdErr=1.00D-07
 Number of steps in this run=      2 maximum allowed number of steps=      2.
 GradGradGradGradGradGradGradGradGradGradGradGradGradGradGradGradGradGrad

 Leave Link  103 at Wed Mar 22 15:42:35 2017, MaxMem=   655360000 cpu:         0.0
 (Enter /mnt/software/gaussian/g09/l202.exe)
                          Input orientation:                          
 ---------------------------------------------------------------------
 Center     Atomic      Atomic             Coordinates (Angstroms)
 Number     Number       Type             X           Y           Z
 ---------------------------------------------------------------------
      1          6           0        0.121109    4.786169   -1.047704
      2          9           0        1.327892    4.523413   -0.902435
      3          9           0       -0.339549    5.512092   -0.150406
      4          9           0       -4.135501   -7.344979    3.908128
      5          9           0       -0.168413    5.169205   -2.193524
 ---------------------------------------------------------------------
                    Distance matrix (angstroms):
                    1          2          3          4          5
     1  C    0.000000
     2  F    1.243571   0.000000
     3  F    1.242704   2.079277   0.000000
     4  F   13.778380  13.922963  14.006614   0.000000
     5  F    1.242354   2.079155   2.078747  14.476628   0.000000
 Stoichiometry    CF4(1+,2)
 Framework group  C1[X(CF4)]
 Deg. of freedom     9
 Full point group                 C1      NOp   1
 Largest Abelian subgroup         C1      NOp   1
 Largest concise Abelian subgroup C1      NOp   1
                         Standard orientation:                         
 ---------------------------------------------------------------------
 Center     Atomic      Atomic             Coordinates (Angstroms)
 Number     Number       Type             X           Y           Z
 ---------------------------------------------------------------------
      1          6           0       -2.754560    0.000476    0.066538
      2          9           0       -2.845213   -0.949662   -0.730638
      3          9           0       -2.929553    1.110681   -0.463684
      4          9           0       11.023798    0.000145    0.042213
      5          9           0       -3.412658   -0.161482    1.107749
 ---------------------------------------------------------------------
 Rotational constants (GHZ):      6.4221880      0.1698462      0.1696501
 Leave Link  202 at Wed Mar 22 15:42:35 2017, MaxMem=   655360000 cpu:         0.0
 (Enter /mnt/software/gaussian/g09/l301.exe)
 Standard basis: 6-31G(d) (6D, 7F)
 Ernie: Thresh=  0.10000D-02 Tol=  0.10000D-05 Strict=F.
 There are    75 symmetry adapted cartesian basis functions of A   symmetry.
 There are    75 symmetry adapted basis functions of A   symmetry.
    75 basis functions,   140 primitive gaussians,    75 cartesian basis functions
    21 alpha electrons       20 beta electrons
       nuclear repulsion energy       141.9981972701 Hartrees.
 IExCor=    0 DFT=F Ex=HF Corr=None ExCW=0 ScaHFX=  1.000000
 ScaDFX=  1.000000  1.000000  1.000000  1.000000 ScalE2=  1.000000  1.000000
 IRadAn=      0 IRanWt=     -1 IRanGd=            0 ICorTp=0 IEmpDi=  4
 NAtoms=    5 NActive=    5 NUniq=    5 SFac= 1.00D+00 NAtFMM=   60 NAOKFM=F Big=F
 Integral buffers will be    131072 words long.
 Raffenetti 2 integral format.
 Two-electron integral symmetry is turned on.
 Leave Link  301 at Wed Mar 22 15:42:35 2017, MaxMem=   655360000 cpu:         0.0
 (Enter /mnt/software/gaussian/g09/l302.exe)
 NPDir=0 NMtPBC=     1 NCelOv=     1 NCel=       1 NClECP=     1 NCelD=      1
         NCelK=      1 NCelE2=     1 NClLst=     1 CellRange=     0.0.
 One-electron integrals computed using PRISM.
 NBasis=    75 RedAO= T EigKep=  3.23D-03  NBF=    75
 NBsUse=    75 1.00D-06 EigRej= -1.00D+00 NBFU=    75
 Leave Link  302 at Wed Mar 22 15:42:35 2017, MaxMem=   655360000 cpu:         0.1
 (Enter /mnt/software/gaussian/g09/l303.exe)
 DipDrv:  MaxL=1.
 Leave Link  303 at Wed Mar 22 15:42:35 2017, MaxMem=   655360000 cpu:         0.0
 (Enter /mnt/software/gaussian/g09/l401.exe)
 ExpMin= 1.69D-01 ExpMax= 7.00D+03 ExpMxC= 1.05D+03 IAcc=1 IRadAn=         1 AccDes= 0.00D+00
 Harris functional with IExCor=  205 and IRadAn=       1 diagonalized for initial guess.
 HarFok:  IExCor=  205 AccDes= 0.00D+00 IRadAn=         1 IDoV= 1 UseB2=F ITyADJ=14
 ICtDFT=  3500011 ScaDFX=  1.000000  1.000000  1.000000  1.000000
 FoFCou: FMM=F IPFlag=           0 FMFlag=      100000 FMFlg1=           0
         NFxFlg=           0 DoJE=T BraDBF=F KetDBF=T FulRan=T
         wScrn=  0.000000 ICntrl=     500 IOpCl=  0 I1Cent=   200000004 NGrid=           0
         NMat0=    1 NMatS0=      1 NMatT0=    0 NMatD0=    1 NMtDS0=    0 NMtDT0=    0
 Petite list used in FoFCou.
 Harris En= -435.010204912696    
 JPrj=0 DoOrth=F DoCkMO=F.
 Initial guess <Sx>= 0.0000 <Sy>= 0.0000 <Sz>= 0.5000 <S**2>= 0.7500 S= 0.5000
 Leave Link  401 at Wed Mar 22 15:42:35 2017, MaxMem=   655360000 cpu:         0.2
 (Enter /mnt/software/gaussian/g09/l502.exe)
 UHF open shell SCF:
 Using DIIS extrapolation, IDIIS=  1040.
 Integral symmetry usage will be decided dynamically.
 Keep R1 and R2 ints in memory in canonical form, NReq=8987021.
 IVT=       23822 IEndB=       23822 NGot=   655360000 MDV=   647210829
 LenX=   647210829 LenY=   647204763
 Requested convergence on RMS density matrix=1.00D-07 within  64 cycles.
 Requested convergence on MAX density matrix=1.00D-05.
 Requested convergence on             energy=1.00D-05.
 No special actions if energy rises.
 FoFCou: FMM=F IPFlag=           0 FMFlag=           0 FMFlg1=           0
         NFxFlg=           0 DoJE=F BraDBF=F KetDBF=F FulRan=T
         wScrn=  0.000000 ICntrl=     600 IOpCl=  0 I1Cent=           0 NGrid=           0
         NMat0=    1 NMatS0=   2850 NMatT0=    0 NMatD0=    1 NMtDS0=    0 NMtDT0=    0
 Symmetry not used in FoFCou.

 Cycle   1  Pass 1  IDiag  1:
 E= -435.037508610667    
 DIIS: error= 7.71D-02 at cycle   1 NSaved=   1.
 NSaved= 1 IEnMin= 1 EnMin= -435.037508610667     IErMin= 1 ErrMin= 7.71D-02
 ErrMax= 7.71D-02  0.00D+00 EMaxC= 1.00D-01 BMatC= 1.01D+00 BMatP= 1.01D+00
 IDIUse=3 WtCom= 2.29D-01 WtEn= 7.71D-01
 Coeff-Com:  0.100D+01
 Coeff-En:   0.100D+01
 Coeff:      0.100D+01
 Gap=     0.480 Goal=   None    Shift=    0.000
 Gap=     0.788 Goal=   None    Shift=    0.000
 GapD=    0.480 DampG=2.000 DampE=0.500 DampFc=1.0000 IDamp=-1.
 RMSDP=3.89D-03 MaxDP=6.32D-02              OVMax= 5.75D-02

 Cycle   2  Pass 1  IDiag  1:
 E= -435.107108559618     Delta-E=       -0.069599948951 Rises=F Damp=F
 DIIS: error= 1.19D-02 at cycle   2 NSaved=   2.
 NSaved= 2 IEnMin= 2 EnMin= -435.107108559618     IErMin= 2 ErrMin= 1.19D-02
 ErrMax= 1.19D-02  0.00D+00 EMaxC= 1.00D-01 BMatC= 6.47D-02 BMatP= 1.01D+00
 IDIUse=3 WtCom= 8.81D-01 WtEn= 1.19D-01
 Coeff-Com:  0.938D-01 0.906D+00
 Coeff-En:   0.000D+00 0.100D+01
 Coeff:      0.826D-01 0.917D+00
 Gap=     0.454 Goal=   None    Shift=    0.000
 Gap=     0.407 Goal=   None    Shift=    0.000
 RMSDP=1.42D-03 MaxDP=2.58D-02 DE=-6.96D-02 OVMax= 4.94D-02

 Cycle   3  Pass 1  IDiag  1:
 E= -435.116724650203     Delta-E=       -0.009616090585 Rises=F Damp=F
 DIIS: error= 7.14D-03 at cycle   3 NSaved=   3.
 NSaved= 3 IEnMin= 3 EnMin= -435.116724650203     IErMin= 3 ErrMin= 7.14D-03
 ErrMax= 7.14D-03  0.00D+00 EMaxC= 1.00D-01 BMatC= 1.90D-02 BMatP= 6.47D-02
 IDIUse=3 WtCom= 9.29D-01 WtEn= 7.14D-02
 Coeff-Com: -0.240D-01 0.327D+00 0.697D+00
 Coeff-En:   0.000D+00 0.000D+00 0.100D+01
 Coeff:     -0.223D-01 0.304D+00 0.718D+00
 Gap=     0.445 Goal=   None    Shift=    0.000
 Gap=     0.397 Goal=   None    Shift=    0.000
 RMSDP=4.60D-04 MaxDP=1.01D-02 DE=-9.62D-03 OVMax= 1.04D-02

 Cycle   4  Pass 1  IDiag  1:
 E= -435.119688617699     Delta-E=       -0.002963967495 Rises=F Damp=F
 DIIS: error= 1.22D-03 at cycle   4 NSaved=   4.
 NSaved= 4 IEnMin= 4 EnMin= -435.119688617699     IErMin= 4 ErrMin= 1.22D-03
 ErrMax= 1.22D-03  0.00D+00 EMaxC= 1.00D-01 BMatC= 3.60D-04 BMatP= 1.90D-02
 IDIUse=3 WtCom= 9.88D-01 WtEn= 1.22D-02
 Coeff-Com: -0.394D-02-0.602D-01-0.477D-01 0.111D+01
 Coeff-En:   0.000D+00 0.000D+00 0.000D+00 0.100D+01
 Coeff:     -0.389D-02-0.595D-01-0.471D-01 0.111D+01
 Gap=     0.445 Goal=   None    Shift=    0.000
 Gap=     0.395 Goal=   None    Shift=    0.000
 RMSDP=1.45D-04 MaxDP=1.98D-03 DE=-2.96D-03 OVMax= 4.54D-03

 Cycle   5  Pass 1  IDiag  1:
 E= -435.119844253096     Delta-E=       -0.000155635398 Rises=F Damp=F
 DIIS: error= 5.02D-04 at cycle   5 NSaved=   5.
 NSaved= 5 IEnMin= 5 EnMin= -435.119844253096     IErMin= 5 ErrMin= 5.02D-04
 ErrMax= 5.02D-04  0.00D+00 EMaxC= 1.00D-01 BMatC= 4.00D-05 BMatP= 3.60D-04
 IDIUse=3 WtCom= 9.95D-01 WtEn= 5.02D-03
 Coeff-Com:  0.361D-02-0.277D-01-0.726D-01-0.116D+00 0.121D+01
 Coeff-En:   0.000D+00 0.000D+00 0.000D+00 0.000D+00 0.100D+01
 Coeff:      0.360D-02-0.276D-01-0.722D-01-0.115D+00 0.121D+01
 Gap=     0.447 Goal=   None    Shift=    0.000
 Gap=     0.396 Goal=   None    Shift=    0.000
 RMSDP=5.88D-05 MaxDP=1.02D-03 DE=-1.56D-04 OVMax= 2.03D-03

 Cycle   6  Pass 1  IDiag  1:
 E= -435.119865314065     Delta-E=       -0.000021060969 Rises=F Damp=F
 DIIS: error= 1.20D-04 at cycle   6 NSaved=   6.
 NSaved= 6 IEnMin= 6 EnMin= -435.119865314065     IErMin= 6 ErrMin= 1.20D-04
 ErrMax= 1.20D-04  0.00D+00 EMaxC= 1.00D-01 BMatC= 1.71D-06 BMatP= 4.00D-05
 IDIUse=3 WtCom= 9.99D-01 WtEn= 1.20D-03
 Coeff-Com: -0.765D-03 0.101D-01 0.220D-01-0.246D-01-0.331D+00 0.132D+01
 Coeff-En:   0.000D+00 0.000D+00 0.000D+00 0.000D+00 0.000D+00 0.100D+01
 Coeff:     -0.764D-03 0.101D-01 0.220D-01-0.246D-01-0.331D+00 0.132D+01
 Gap=     0.447 Goal=   None    Shift=    0.000
 Gap=     0.396 Goal=   None    Shift=    0.000
 RMSDP=1.29D-05 MaxDP=2.61D-04 DE=-2.11D-05 OVMax= 4.67D-04

 Cycle   7  Pass 1  IDiag  1:
 E= -435.119866195920     Delta-E=       -0.000000881855 Rises=F Damp=F
 DIIS: error= 3.67D-05 at cycle   7 NSaved=   7.
 NSaved= 7 IEnMin= 7 EnMin= -435.119866195920     IErMin= 7 ErrMin= 3.67D-05
 ErrMax= 3.67D-05  0.00D+00 EMaxC= 1.00D-01 BMatC= 8.91D-08 BMatP= 1.71D-06
 IDIUse=1 WtCom= 1.00D+00 WtEn= 0.00D+00
 Coeff-Com: -0.160D-03 0.150D-02 0.316D-02 0.422D-02-0.590D-01 0.551D-01
 Coeff-Com:  0.995D+00
 Coeff:     -0.160D-03 0.150D-02 0.316D-02 0.422D-02-0.590D-01 0.551D-01
 Coeff:      0.995D+00
 Gap=     0.447 Goal=   None    Shift=    0.000
 Gap=     0.396 Goal=   None    Shift=    0.000
 RMSDP=2.00D-06 MaxDP=5.81D-05 DE=-8.82D-07 OVMax= 5.13D-05

 Cycle   8  Pass 1  IDiag  1:
 E= -435.119866225668     Delta-E=       -0.000000029748 Rises=F Damp=F
 DIIS: error= 1.16D-05 at cycle   8 NSaved=   8.
 NSaved= 8 IEnMin= 8 EnMin= -435.119866225668     IErMin= 8 ErrMin= 1.16D-05
 ErrMax= 1.16D-05  0.00D+00 EMaxC= 1.00D-01 BMatC= 1.00D-08 BMatP= 8.91D-08
 IDIUse=1 WtCom= 1.00D+00 WtEn= 0.00D+00
 Coeff-Com:  0.964D-04-0.128D-02-0.298D-02 0.287D-02 0.439D-01-0.163D+00
 Coeff-Com: -0.888D-01 0.121D+01
 Coeff:      0.964D-04-0.128D-02-0.298D-02 0.287D-02 0.439D-01-0.163D+00
 Coeff:     -0.888D-01 0.121D+01
 Gap=     0.447 Goal=   None    Shift=    0.000
 Gap=     0.396 Goal=   None    Shift=    0.000
 RMSDP=9.06D-07 MaxDP=2.25D-05 DE=-2.97D-08 OVMax= 2.28D-05

 Cycle   9  Pass 1  IDiag  1:
 E= -435.119866229804     Delta-E=       -0.000000004135 Rises=F Damp=F
 DIIS: error= 1.64D-06 at cycle   9 NSaved=   9.
 NSaved= 9 IEnMin= 9 EnMin= -435.119866229804     IErMin= 9 ErrMin= 1.64D-06
 ErrMax= 1.64D-06  0.00D+00 EMaxC= 1.00D-01 BMatC= 2.87D-10 BMatP= 1.00D-08
 IDIUse=1 WtCom= 1.00D+00 WtEn= 0.00D+00
 Coeff-Com: -0.777D-05 0.135D-03 0.311D-03-0.708D-03-0.394D-02 0.210D-01
 Coeff-Com: -0.234D-01-0.181D+00 0.119D+01
 Coeff:     -0.777D-05 0.135D-03 0.311D-03-0.708D-03-0.394D-02 0.210D-01
 Coeff:     -0.234D-01-0.181D+00 0.119D+01
 Gap=     0.447 Goal=   None    Shift=    0.000
 Gap=     0.396 Goal=   None    Shift=    0.000
 RMSDP=1.38D-07 MaxDP=3.36D-06 DE=-4.14D-09 OVMax= 3.17D-06

 Cycle  10  Pass 1  IDiag  1:
 E= -435.119866229908     Delta-E=       -0.000000000105 Rises=F Damp=F
 DIIS: error= 3.58D-07 at cycle  10 NSaved=  10.
 NSaved=10 IEnMin=10 EnMin= -435.119866229908     IErMin=10 ErrMin= 3.58D-07
 ErrMax= 3.58D-07  0.00D+00 EMaxC= 1.00D-01 BMatC= 4.11D-11 BMatP= 2.87D-10
 IDIUse=1 WtCom= 1.00D+00 WtEn= 0.00D+00
 Coeff-Com: -0.707D-05 0.103D-03 0.236D-03-0.348D-03-0.330D-02 0.141D-01
 Coeff-Com: -0.199D-02-0.111D+00 0.313D+00 0.790D+00
 Coeff:     -0.707D-05 0.103D-03 0.236D-03-0.348D-03-0.330D-02 0.141D-01
 Coeff:     -0.199D-02-0.111D+00 0.313D+00 0.790D+00
 Gap=     0.447 Goal=   None    Shift=    0.000
 Gap=     0.396 Goal=   None    Shift=    0.000
 RMSDP=2.91D-08 MaxDP=5.83D-07 DE=-1.05D-10 OVMax= 5.93D-07

 SCF Done:  E(UHF) =  -435.119866230     A.U. after   10 cycles
            NFock= 10  Conv=0.29D-07     -V/T= 2.0026
 <Sx>= 0.0000 <Sy>= 0.0000 <Sz>= 0.5000 <S**2>= 0.7527 S= 0.5013
 <L.S>= 0.000000000000E+00
 KE= 4.339862310811D+02 PE=-1.311179418845D+03 EE= 3.000751242643D+02
 Annihilation of the first spin contaminant:
 S**2 before annihilation     0.7527,   after     0.7500
 Leave Link  502 at Wed Mar 22 15:42:36 2017, MaxMem=   655360000 cpu:         0.6
 (Enter /mnt/software/gaussian/g09/l508.exe)
 QCSCF skips out because SCF is already converged.
 Leave Link  508 at Wed Mar 22 15:42:36 2017, MaxMem=   655360000 cpu:         0.0
 (Enter /mnt/software/gaussian/g09/l801.exe)
 Range of M.O.s used for correlation:     1    75
 NBasis=    75 NAE=    21 NBE=    20 NFC=     0 NFV=     0
 NROrb=     75 NOA=    21 NOB=    20 NVA=    54 NVB=    55
 Leave Link  801 at Wed Mar 22 15:42:36 2017, MaxMem=   655360000 cpu:         0.0
 (Enter /mnt/software/gaussian/g09/l1002.exe)
 Minotr:  UHF open shell wavefunction.
          Direct CPHF calculation.
          Differentiating once with respect to electric field.
                with respect to dipole field.
          Electric field/nuclear overlap derivatives assumed to be zero.
          Requested convergence is 1.0D-08 RMS, and 1.0D-07 maximum.
          Secondary convergence is 1.0D-12 RMS, and 1.0D-12 maximum.
          NewPWx=F KeepS1=T KeepF1=T KeepIn=T MapXYZ=F SortEE=F KeepMc=T.
          MDV=     655359806 using IRadAn=       2.
 Keep R1 and R2 ints in memory in canonical form, NReq=8971660.
 FoFCou: FMM=F IPFlag=           0 FMFlag=           0 FMFlg1=           0
         NFxFlg=           0 DoJE=F BraDBF=F KetDBF=F FulRan=T
         wScrn=  0.000000 ICntrl=     600 IOpCl=  0 I1Cent=           0 NGrid=           0
         NMat0=    1 NMatS0=   2850 NMatT0=    0 NMatD0=    1 NMtDS0=    0 NMtDT0=    0
 Symmetry not used in FoFCou.
          Solving linear equations simultaneously, MaxMat=       0.
          There are     3 degrees of freedom in the 1st order CPHF.  IDoFFX=0 NUNeed=     3.
      3 vectors produced by pass  0 Test12= 7.45D-14 3.33D-08 XBig12= 4.47D+00 6.28D-01.
 AX will form     3 AO Fock derivatives at one time.
      3 vectors produced by pass  1 Test12= 7.45D-14 3.33D-08 XBig12= 3.10D-01 1.06D-01.
      3 vectors produced by pass  2 Test12= 7.45D-14 3.33D-08 XBig12= 4.45D-02 6.38D-02.
      3 vectors produced by pass  3 Test12= 7.45D-14 3.33D-08 XBig12= 2.15D-03 1.48D-02.
      3 vectors produced by pass  4 Test12= 7.45D-14 3.33D-08 XBig12= 4.24D-05 1.35D-03.
      3 vectors produced by pass  5 Test12= 7.45D-14 3.33D-08 XBig12= 1.17D-06 1.76D-04.
      3 vectors produced by pass  6 Test12= 7.45D-14 3.33D-08 XBig12= 4.31D-08 7.48D-05.
      3 vectors produced by pass  7 Test12= 7.45D-14 3.33D-08 XBig12= 3.24D-09 4.55D-05.
      3 vectors produced by pass  8 Test12= 7.45D-14 3.33D-08 XBig12= 1.03D-10 2.53D-06.
      3 vectors produced by pass  9 Test12= 7.45D-14 3.33D-08 XBig12= 1.22D-12 2.68D-07.
      3 vectors produced by pass 10 Test12= 7.45D-14 3.33D-08 XBig12= 3.51D-14 9.74D-08.
 InvSVY:  IOpt=1 It=  1 EMax= 1.78D-15
 Solved reduced A of dimension    33 with     3 vectors.
 End of Minotr F.D. properties file   721 does not exist.
 End of Minotr F.D. properties file   722 does not exist.
 End of Minotr F.D. properties file   788 does not exist.
 Leave Link 1002 at Wed Mar 22 15:42:37 2017, MaxMem=   655360000 cpu:         1.0
 (Enter /mnt/software/gaussian/g09/l1101.exe)
 Using compressed storage, NAtomX=     5.
 Will process      6 centers per pass.
 Leave Link 1101 at Wed Mar 22 15:42:37 2017, MaxMem=   655360000 cpu:         0.2
 (Enter /mnt/software/gaussian/g09/l1102.exe)
 Symmetrizing basis deriv contribution to polar:
 IMax=3 JMax=2 DiffMx= 0.00D+00
 Leave Link 1102 at Wed Mar 22 15:42:37 2017, MaxMem=   655360000 cpu:         0.0
 (Enter /mnt/software/gaussian/g09/l1110.exe)
 Forming Gx(P) for the SCF density, NAtomX=     5.
 Integral derivatives from FoFJK, PRISM(SPDF).
 Do as many integral derivatives as possible in FoFJK.
 G2DrvN: MDV=     655359856.
 G2DrvN: will do     6 centers at a time, making    1 passes.
 PxScal for G2LodP:  IOpCl= 1 ISclPx=1 IMOff=     1 NMtTot=     4 NTT=    2850 ScalPx= 1.10D+00
 Calling FoFCou, ICntrl=  3107 FMM=F I1Cent=   0 AccDes= 0.00D+00.
 FoFJK:  IHMeth= 1 ICntrl=    3107 DoSepK=F KAlg= 0 I1Cent=   0 FoldK=F
 IRaf=         0 NMat=   1 IRICut=       1 DoRegI=T DoRafI=F ISym2E= 0.
 FoFCou: FMM=F IPFlag=           0 FMFlag=      100000 FMFlg1=           0
         NFxFlg=           0 DoJE=F BraDBF=F KetDBF=F FulRan=T
         wScrn=  0.000000 ICntrl=    3107 IOpCl=  1 I1Cent=           0 NGrid=           0
         NMat0=    1 NMatS0=      1 NMatT0=    0 NMatD0=    4 NMtDS0=    3 NMtDT0=    0
 Symmetry not used in FoFCou.
 End of G2Drv F.D. properties file   721 does not exist.
 End of G2Drv F.D. properties file   722 does not exist.
 End of G2Drv F.D. properties file   788 does not exist.
 Leave Link 1110 at Wed Mar 22 15:42:38 2017, MaxMem=   655360000 cpu:         1.0
 (Enter /mnt/software/gaussian/g09/l1002.exe)
 Minotr:  UHF open shell wavefunction.
          IDoAtm=11111
          Direct CPHF calculation.
          Differentiating once with respect to electric field.
                with respect to dipole field.
          Differentiating once with respect to nuclear coordinates.
          Requested convergence is 1.0D-08 RMS, and 1.0D-07 maximum.
          Secondary convergence is 1.0D-12 RMS, and 1.0D-12 maximum.
          NewPWx=T KeepS1=F KeepF1=F KeepIn=T MapXYZ=F SortEE=F KeepMc=T.
          MDV=     655359796 using IRadAn=       2.
 Keep R1 and R2 ints in memory in canonical form, NReq=8971775.
 FoFCou: FMM=F IPFlag=           0 FMFlag=           0 FMFlg1=           0
         NFxFlg=           0 DoJE=F BraDBF=F KetDBF=F FulRan=T
         wScrn=  0.000000 ICntrl=     600 IOpCl=  0 I1Cent=           0 NGrid=           0
         NMat0=    1 NMatS0=   2850 NMatT0=    0 NMatD0=    1 NMtDS0=    0 NMtDT0=    0
 Symmetry not used in FoFCou.
          Solving linear equations simultaneously, MaxMat=       0.
          There are    18 degrees of freedom in the 1st order CPHF.  IDoFFX=5 NUNeed=    18.
 Will reuse    3 saved solutions.
     12 vectors produced by pass  0 Test12= 1.24D-14 5.56D-09 XBig12= 1.97D-01 8.55D-02.
 AX will form    12 AO Fock derivatives at one time.
     12 vectors produced by pass  1 Test12= 1.24D-14 5.56D-09 XBig12= 1.62D-02 5.01D-02.
     12 vectors produced by pass  2 Test12= 1.24D-14 5.56D-09 XBig12= 2.21D-03 1.02D-02.
     12 vectors produced by pass  3 Test12= 1.24D-14 5.56D-09 XBig12= 5.15D-05 1.62D-03.
     11 vectors produced by pass  4 Test12= 1.24D-14 5.56D-09 XBig12= 6.24D-07 2.28D-04.
      9 vectors produced by pass  5 Test12= 1.24D-14 5.56D-09 XBig12= 8.69D-09 1.77D-05.
      9 vectors produced by pass  6 Test12= 1.24D-14 5.56D-09 XBig12= 2.52D-10 1.37D-05.
      7 vectors produced by pass  7 Test12= 1.24D-14 5.56D-09 XBig12= 1.41D-11 1.13D-06.
      2 vectors produced by pass  8 Test12= 1.24D-14 5.56D-09 XBig12= 9.39D-14 6.53D-08.
      1 vectors produced by pass  9 Test12= 1.24D-14 5.56D-09 XBig12= 6.78D-16 6.95D-09.
 InvSVY:  IOpt=1 It=  1 EMax= 1.31D-14
 Solved reduced A of dimension    87 with    12 vectors.
 FullF1:  Do perturbations    1 to     3.
 Isotropic polarizability for W=    0.000000       11.73 Bohr**3.
 FullF1:  Do perturbations    1 to     6.
 End of Minotr F.D. properties file   721 does not exist.
 End of Minotr F.D. properties file   722 does not exist.
 End of Minotr F.D. properties file   788 does not exist.
 Leave Link 1002 at Wed Mar 22 15:42:40 2017, MaxMem=   655360000 cpu:         2.0
 (Enter /mnt/software/gaussian/g09/l601.exe)
 Copying SCF densities to generalized density rwf, IOpCl= 1 IROHF=0.

 **********************************************************************

            Population analysis using the SCF density.

 **********************************************************************

 Orbital symmetries:
 Alpha Orbitals:
       Occupied  (A) (A) (A) (A) (A) (A) (A) (A) (A) (A) (A) (A)
                 (A) (A) (A) (A) (A) (A) (A) (A) (A)
       Virtual   (A) (A) (A) (A) (A) (A) (A) (A) (A) (A) (A) (A)
                 (A) (A) (A) (A) (A) (A) (A) (A) (A) (A) (A) (A)
                 (A) (A) (A) (A) (A) (A) (A) (A) (A) (A) (A) (A)
                 (A) (A) (A) (A) (A) (A) (A) (A) (A) (A) (A) (A)
                 (A) (A) (A) (A) (A) (A)
 Beta  Orbitals:
       Occupied  (A) (A) (A) (A) (A) (A) (A) (A) (A) (A) (A) (A)
                 (A) (A) (A) (A) (A) (A) (A) (A)
       Virtual   (A) (A) (A) (A) (A) (A) (A) (A) (A) (A) (A) (A)
                 (A) (A) (A) (A) (A) (A) (A) (A) (A) (A) (A) (A)
                 (A) (A) (A) (A) (A) (A) (A) (A) (A) (A) (A) (A)
                 (A) (A) (A) (A) (A) (A) (A) (A) (A) (A) (A) (A)
                 (A) (A) (A) (A) (A) (A) (A)
 The electronic state is 2-A.
 Alpha  occ. eigenvalues --  -26.74442 -26.74426 -26.74389 -26.43977 -11.96657
 Alpha  occ. eigenvalues --   -2.16167  -2.04581  -2.04518  -1.69358  -1.32424
 Alpha  occ. eigenvalues --   -1.22790  -1.22781  -1.17717  -1.06698  -1.06686
 Alpha  occ. eigenvalues --   -1.03183  -1.03156  -1.01472  -0.86181  -0.75394
 Alpha  occ. eigenvalues --   -0.75390
 Alpha virt. eigenvalues --   -0.30663   0.12598   0.12814   0.12849   0.32527
 Alpha virt. eigenvalues --    0.38229   0.38294   0.41280   1.01212   1.01244
 Alpha virt. eigenvalues --    1.02802   1.02930   1.06035   1.06047   1.27909
 Alpha virt. eigenvalues --    1.27926   1.28313   1.31237   1.31650   1.31660
 Alpha virt. eigenvalues --    1.32635   1.39468   1.39478   1.42321   1.62044
 Alpha virt. eigenvalues --    1.62075   1.74388   1.74391   1.78161   1.81111
 Alpha virt. eigenvalues --    1.82035   1.82046   2.00182   2.01907   2.01912
 Alpha virt. eigenvalues --    2.02624   2.02634   2.03965   2.07324   2.07324
 Alpha virt. eigenvalues --    2.10756   2.50639   2.50755   2.52663   2.84637
 Alpha virt. eigenvalues --    2.84694   3.13388   3.13402   3.15163   3.65987
 Alpha virt. eigenvalues --    4.19920   4.43096   4.43251   4.75859
  Beta  occ. eigenvalues --  -26.74442 -26.74426 -26.74389 -26.39201 -11.96657
  Beta  occ. eigenvalues --   -2.16167  -2.04581  -2.04518  -1.50167  -1.32424
  Beta  occ. eigenvalues --   -1.22790  -1.22781  -1.17717  -1.06698  -1.06686
  Beta  occ. eigenvalues --   -1.03183  -1.03156  -1.01472  -0.70229  -0.70225
  Beta virt. eigenvalues --   -0.30663   0.05502   0.12598   0.12814   0.12849
  Beta virt. eigenvalues --    0.32527   0.38229   0.38294   0.41280   1.01212
  Beta virt. eigenvalues --    1.01244   1.02802   1.06035   1.06047   1.06160
  Beta virt. eigenvalues --    1.27909   1.27926   1.28313   1.31237   1.31650
  Beta virt. eigenvalues --    1.31660   1.41994   1.42003   1.42321   1.54985
  Beta virt. eigenvalues --    1.62044   1.62075   1.74388   1.74391   1.78161
  Beta virt. eigenvalues --    1.81111   1.82035   1.82046   2.02624   2.02634
  Beta virt. eigenvalues --    2.03965   2.07997   2.07997   2.10756   2.10788
  Beta virt. eigenvalues --    2.10794   2.11893   2.50639   2.50755   2.52663
  Beta virt. eigenvalues --    2.84637   2.84694   3.13388   3.13402   3.15163
  Beta virt. eigenvalues --    3.70287   4.19920   4.43096   4.43251   4.75859
          Condensed to atoms (all electrons):
               1          2          3          4          5
     1  C    3.527968   0.399743   0.400217   0.000000   0.400409
     2  F    0.399743   8.770904  -0.039667   0.000000  -0.039663
     3  F    0.400217  -0.039667   8.769489   0.000000  -0.039672
     4  F    0.000000   0.000000   0.000000   9.000000   0.000000
     5  F    0.400409  -0.039663  -0.039672   0.000000   8.768905
          Atomic-Atomic Spin Densities.
               1          2          3          4          5
     1  C    0.000000   0.000000   0.000000   0.000000   0.000000
     2  F    0.000000   0.000000   0.000000   0.000000   0.000000
     3  F    0.000000   0.000000   0.000000   0.000000   0.000000
     4  F    0.000000   0.000000   0.000000   1.000000   0.000000
     5  F    0.000000   0.000000   0.000000   0.000000   0.000000
 Mulliken charges and spin densities:
               1          2
     1  C    1.271663   0.000000
     2  F   -0.091318   0.000000
     3  F   -0.090366   0.000000
     4  F    0.000000   1.000000
     5  F   -0.089979   0.000000
 Sum of Mulliken charges =   1.00000   1.00000
 Mulliken charges and spin densities with hydrogens summed into heavy atoms:
               1          2
     1  C    1.271663   0.000000
     2  F   -0.091318   0.000000
     3  F   -0.090366   0.000000
     4  F    0.000000   1.000000
     5  F   -0.089979   0.000000
 APT charges:
               1
     1  C    1.994190
     2  F   -0.331175
     3  F   -0.331439
     4  F    0.000001
     5  F   -0.331577
 Sum of APT charges =   1.00000
 APT charges with hydrogens summed into heavy atoms:
               1
     1  C    1.994190
     2  F   -0.331175
     3  F   -0.331439
     4  F    0.000001
     5  F   -0.331577
 Electronic spatial extent (au):  <R**2>=           5132.3824
 Charge=              1.0000 electrons
 Dipole moment (field-independent basis, Debye):
    X=            -12.8363    Y=              0.0052    Z=              0.4430  Tot=             12.8440
 Quadrupole moment (field-independent basis, Debye-Ang):
   XX=             13.8265   YY=            -20.6389   ZZ=            -20.9355
   XY=             -0.0134   XZ=             -0.9941   YZ=             -0.3785
 Traceless Quadrupole moment (field-independent basis, Debye-Ang):
   XX=             23.0758   YY=            -11.3896   ZZ=            -11.6862
   XY=             -0.0134   XZ=             -0.9941   YZ=             -0.3785
 Octapole moment (field-independent basis, Debye-Ang**2):
  XXX=           -101.6284  YYY=              0.3026  ZZZ=              0.0591  XYY=              4.3151
  XXY=              0.0059  XXZ=              2.4764  XZZ=             -0.5774  YZZ=             -0.3052
  YYZ=             -0.8583  XYZ=             -4.0679
 Hexadecapole moment (field-independent basis, Debye-Ang**3):
 XXXX=          -4035.2228 YYYY=            -65.6702 ZZZZ=            -62.0467 XXXY=              0.1327
 XXXZ=             -7.8924 YYYX=             -1.1195 YYYZ=             -0.2238 ZZZX=             -1.0660
 ZZZY=              0.0278 XXYY=           -657.2226 XXZZ=           -702.1306 YYZZ=            -20.8877
 XXYZ=            -46.5260 YYXZ=              3.0264 ZZXY=              0.6246
 N-N= 1.419981972701D+02 E-N=-1.311179417850D+03  KE= 4.339862310811D+02
  Exact polarizability:   9.633  -0.003  12.983  -0.982  -0.096  12.576
 Approx polarizability:   9.717  -0.001  12.051  -0.672  -0.087  11.750
                          Isotropic Fermi Contact Couplings
        Atom                 a.u.       MegaHertz       Gauss      10(-4) cm-1
     1  C(13)              0.00000       0.00000       0.00000       0.00000
     2  F(19)              0.00000       0.00000       0.00000       0.00000
     3  F(19)              0.00000       0.00000       0.00000       0.00000
     4  F(19)              0.06931     291.61966     104.05714      97.27385
     5  F(19)              0.00000       0.00000       0.00000       0.00000
 --------------------------------------------------------
       Center         ----  Spin Dipole Couplings  ----
                      3XX-RR        3YY-RR        3ZZ-RR
 --------------------------------------------------------
     1   Atom        0.000113     -0.000056     -0.000057
     2   Atom        0.000108     -0.000054     -0.000054
     3   Atom        0.000106     -0.000053     -0.000054
     4   Atom       -2.911683      3.494950     -0.583267
     5   Atom        0.000097     -0.000049     -0.000048
 --------------------------------------------------------
                        XY            XZ            YZ
 --------------------------------------------------------
     1   Atom        0.000000      0.000000      0.000000
     2   Atom        0.000011      0.000009      0.000001
     3   Atom       -0.000013      0.000006     -0.000001
     4   Atom       -0.001650      0.000994     -3.862320
     5   Atom        0.000002     -0.000011      0.000000
 --------------------------------------------------------


 ---------------------------------------------------------------------------------
              Anisotropic Spin Dipole Couplings in Principal Axis System
 ---------------------------------------------------------------------------------

       Atom             a.u.   MegaHertz   Gauss  10(-4) cm-1        Axes

              Baa    -0.0001    -0.008    -0.003    -0.003  0.0015  0.5163  0.8564
     1 C(13)  Bbb    -0.0001    -0.008    -0.003    -0.003 -0.0009  0.8564 -0.5163
              Bcc     0.0001     0.015     0.005     0.005  1.0000  0.0000 -0.0018
 
              Baa    -0.0001    -0.028    -0.010    -0.009 -0.0828  0.5145  0.8535
     2 F(19)  Bbb    -0.0001    -0.027    -0.010    -0.009 -0.0296  0.8548 -0.5182
              Bcc     0.0001     0.055     0.020     0.018  0.9961  0.0681  0.0556
 
              Baa    -0.0001    -0.027    -0.010    -0.009  0.0100  0.5163  0.8564
     3 F(19)  Bbb    -0.0001    -0.027    -0.010    -0.009  0.0862  0.8528 -0.5151
              Bcc     0.0001     0.054     0.019     0.018  0.9962 -0.0790  0.0360
 
              Baa    -2.9117 -1462.334  -521.797  -487.782  0.0042  0.5163  0.8564
     4 F(19)  Bbb    -2.9117 -1462.322  -521.793  -487.778  1.0000 -0.0020 -0.0037
              Bcc     5.8234  2924.656  1043.590   975.560 -0.0002  0.8564 -0.5163
 
              Baa     0.0000    -0.024    -0.009    -0.008  0.0573  0.5155  0.8550
     5 F(19)  Bbb     0.0000    -0.024    -0.009    -0.008 -0.0473  0.8568 -0.5134
              Bcc     0.0001     0.049     0.017     0.016  0.9972  0.0110 -0.0735
 

 ---------------------------------------------------------------------------------

 No NMR shielding tensors so no spin-rotation constants.
 Leave Link  601 at Wed Mar 22 15:42:40 2017, MaxMem=   655360000 cpu:         0.2
 (Enter /mnt/software/gaussian/g09/l701.exe)
 Compute integral second derivatives.
 ... and contract with generalized density number  0.
 Entering OneElI...
 Calculate overlap and kinetic energy integrals
    NBasis =  75  MinDer = 2  MaxDer = 2
 Requested accuracy = 0.1000D-12
 PrsmSu:  NPrtUS=   1 ThrOK=F IAlg=1 NPAlg=1 LenDen=           0.
 Prism:   IPart=     0 DynPar=F LinDyn=F Incr=           1.
 PRISM was handed   655323346 working-precision words and   146 shell-pairs
 IPart=  0 NShTot=         146 NBatch=          15 AvBLen=         9.7
 PrSmSu:  NxtVal=              2.
 Entering OneElI...
 Calculate potential energy integrals
    NBasis =  75  MinDer = 2  MaxDer = 2
 Requested accuracy = 0.1000D-12
 PrsmSu:  NPrtUS=   1 ThrOK=F IAlg=1 NPAlg=1 LenDen=           0.
 Prism:   IPart=     0 DynPar=F LinDyn=F Incr=           7.
 PRISM was handed   655330114 working-precision words and   143 shell-pairs
 IPart=  0 NShTot=         715 NBatch=         143 AvBLen=         5.0
 PrSmSu:  NxtVal=              8.
 Polarizability after L701:
                1             2             3 
      1  0.963252D+01
      2 -0.259346D-02  0.129830D+02
      3 -0.981916D+00 -0.956159D-01  0.125761D+02
 Dipole Derivatives after L701:
                 1             2             3             4             5 
      1   0.134498D+01 -0.103201D-02 -0.315730D+00 -0.774213D-01  0.735404D-01
      2  -0.128085D-02  0.236725D+01 -0.147045D-02 -0.818902D-01 -0.514416D+00
      3  -0.315976D+00 -0.134573D-02  0.227034D+01 -0.221261D-01 -0.214848D+00
                 6             7             8             9            10 
      1   0.103636D+00 -0.800513D-01 -0.551230D-01  0.670660D-01 -0.185711D-03
      2  -0.262574D+00  0.126960D+00 -0.623417D+00  0.211630D+00  0.000000D+00
      3  -0.401688D+00 -0.108508D-01  0.155682D+00 -0.290849D+00  0.147741D-05
                11            12            13            14            15 
      1   0.000000D+00  0.104857D-05 -0.187320D+00 -0.173857D-01  0.145028D+00
      2   0.963906D-04 -0.245763D-05 -0.437886D-01 -0.229518D+00  0.524169D-01
      3  -0.178061D-05  0.933016D-04  0.348952D+00  0.605136D-01 -0.577892D+00
 Hessian after L701:
                1             2             3             4             5 
      1  0.330868D+02
      2  0.170074D-01  0.167891D+02
      3  0.503336D+01  0.171331D-01  0.183293D+02
      4 -0.127377D+02  0.124791D+01  0.927284D+00  0.142199D+02
      5  0.171752D+01 -0.384143D+01  0.751293D+01 -0.101995D+01  0.251191D+01
      6  0.130731D+01  0.736679D+01 -0.609985D+01 -0.412348D+00 -0.871542D+01
      7 -0.124352D+02 -0.235902D+01  0.103013D+01 -0.815668D+00 -0.221281D+00
      8 -0.290852D+01 -0.694682D+00 -0.596049D+01  0.175468D-01  0.183940D+01
      9  0.126543D+01 -0.578884D+01 -0.962047D+01 -0.460041D-01  0.138610D+00
     10 -0.768435D-03 -0.662452D-05 -0.200264D-02  0.990408D-02  0.480861D-02
     11  0.159014D-05 -0.286854D-02 -0.269447D-05  0.943142D-03 -0.424719D-02
     12  0.138098D-03 -0.270487D-05 -0.280593D-02  0.748785D-03  0.156806D-03
     13 -0.791310D+01  0.109411D+01 -0.698877D+01 -0.676397D+00 -0.481093D+00
     14  0.117399D+01 -0.122502D+02 -0.156958D+01 -0.246441D+00 -0.505639D+00
     15 -0.760624D+01 -0.159508D+01 -0.260619D+01 -0.469681D+00  0.106373D+01
                6             7             8             9            10 
      6  0.570645D+01
      7 -0.950482D-01  0.139859D+02
      8  0.580271D+00  0.227710D+01 -0.128190D+01
      9 -0.904399D+00 -0.641493D+00  0.679213D+01  0.980375D+01
     10  0.422792D-02  0.100863D-01 -0.556791D-02  0.285365D-02 -0.303604D-01
     11  0.184767D-03 -0.109402D-02 -0.409198D-02 -0.141870D-03 -0.354320D-05
     12 -0.433410D-02  0.478311D-03 -0.109250D-03 -0.433303D-02 -0.329570D-03
     13 -0.804145D+00 -0.745179D+00  0.619434D+00 -0.580783D+00  0.111385D-01
     14  0.768176D+00  0.304290D+00  0.141267D+00 -0.114176D+01  0.769467D-03
     15  0.130214D+01 -0.294065D+00 -0.141181D+01  0.725453D+00 -0.474936D-02
               11            12            13            14            15 
     11  0.151695D-01
     12 -0.524346D-05  0.151909D-01
     13  0.152835D-03 -0.103562D-02  0.932354D+01
     14 -0.396176D-02 -0.396075D-04 -0.123261D+01  0.126185D+02
     15 -0.349593D-04 -0.371780D-02  0.837474D+01  0.194320D+01  0.582319D+00
 Leave Link  701 at Wed Mar 22 15:42:41 2017, MaxMem=   655360000 cpu:         0.2
 (Enter /mnt/software/gaussian/g09/l702.exe)
 L702 exits ... SP integral derivatives will be done elsewhere.
 Leave Link  702 at Wed Mar 22 15:42:41 2017, MaxMem=   655360000 cpu:         0.0
 (Enter /mnt/software/gaussian/g09/l703.exe)
 Compute integral second derivatives, UseDBF=F ICtDFT=           0.
 Integral derivatives from FoFJK, PRISM(SPDF).
 ICntrl=    100127.
 Calling FoFJK, ICntrl=    100127 FMM=F ISym2X=0 I1Cent= 0 IOpClX= 1 NMat=1 NMatS=1 NMatT=0.
 FoFJK:  IHMeth= 1 ICntrl=  100127 DoSepK=F KAlg= 0 I1Cent=   0 FoldK=F
 IRaf=         0 NMat=   1 IRICut=       1 DoRegI=T DoRafI=F ISym2E= 0.
 FoFCou: FMM=F IPFlag=           0 FMFlag=      100000 FMFlg1=         800
         NFxFlg=           0 DoJE=F BraDBF=F KetDBF=F FulRan=T
         wScrn=  0.000000 ICntrl=  100127 IOpCl=  1 I1Cent=           0 NGrid=           0
         NMat0=    1 NMatS0=      1 NMatT0=    0 NMatD0=    1 NMtDS0=    0 NMtDT0=    0
 Symmetry not used in FoFCou.
 FoFCou:  KetSym=F NOpSet=  1 NOpAb=1 NOp=  1.
 FoFCou:  CnvScl= 1.00D+00 Thresh= 1.00D-10 IAcrcy=      10.
 PrismS was handed   655323588 working-precision words and   143 shell-pairs
 FoFCou: LinMIO=F DoNuc=F BraDBF=F KetDBF=F HaveP=T PDBF=F HaveZ=T HaveW=F
         NIJTC =       6 NIJTAt=       0 NIJTCD=       0 NIJTT =       6
         IJTBeg=       1 IJTEnd=       6 KLTBeg=       1 KLTEnd=       6
         IPTBeg=       1 IPTEnd=       6 IPTBCv=       1 IPTECv=       6
         IZTBeg=       1 IZTEnd=       6 IZTBCv=       1 IZTECv=       6
         IWTBeg=       7 IWTEnd=       6 IWTBCv=       7 IWTECv=       6
         INTBeg=       1 INTEnd=       0 IFTBCv=       1 IFTECv=       6
 NCel replicated for PrismC:     1
 CoulSu:  IncDef=  1024 NBBP=          10296 NTPThr=   100 NPartT=    1 Incr=         102 LDynOK=F.
 CoulSu:  NPrtUS=   1 ThrOK=F IAlg=1 NPAlg=1 LenDen=           0 LWGrdD=           0 DoCopy=F.
 Enter PrismC: JobTyp=22 DoJE=F Cont=F.
 PrismC:  IPart=     0 DynPar=F LinDyn=F Incr=         102 UseFst=F UseS4=T IGathr=2.
 PrismC was handed   655323412 working-precision words and   143 shell-pairs
 IPart=  0 NShTot=       10118 NShNF=       10118 NShFF=           0 NBatch=         656 AvBLen=        15.4
 CoulSu:  NxtVal=            103.
 Polarizability after L703:
                1             2             3 
      1  0.963252D+01
      2 -0.259346D-02  0.129830D+02
      3 -0.981916D+00 -0.956159D-01  0.125761D+02
 Dipole Derivatives after L703:
                 1             2             3             4             5 
      1   0.134498D+01 -0.103201D-02 -0.315730D+00 -0.774213D-01  0.735404D-01
      2  -0.128085D-02  0.236725D+01 -0.147045D-02 -0.818902D-01 -0.514416D+00
      3  -0.315976D+00 -0.134573D-02  0.227034D+01 -0.221261D-01 -0.214848D+00
                 6             7             8             9            10 
      1   0.103636D+00 -0.800513D-01 -0.551230D-01  0.670660D-01 -0.185711D-03
      2  -0.262574D+00  0.126960D+00 -0.623417D+00  0.211630D+00  0.000000D+00
      3  -0.401688D+00 -0.108508D-01  0.155682D+00 -0.290849D+00  0.147741D-05
                11            12            13            14            15 
      1   0.000000D+00  0.104857D-05 -0.187320D+00 -0.173857D-01  0.145028D+00
      2   0.963906D-04 -0.245763D-05 -0.437886D-01 -0.229518D+00  0.524169D-01
      3  -0.178061D-05  0.933016D-04  0.348952D+00  0.605136D-01 -0.577892D+00
 Hessian after L703:
                1             2             3             4             5 
      1  0.391694D+00
      2 -0.732115D-03  0.932888D+00
      3 -0.168657D+00 -0.229081D-02  0.882931D+00
      4 -0.928962D-01 -0.291113D-01 -0.170670D-01  0.477545D-01
      5 -0.343925D-02 -0.359458D+00 -0.199783D+00 -0.292750D-02  0.462668D+00
      6  0.370034D-02 -0.207679D+00 -0.280978D+00 -0.255731D-01  0.273950D+00
      7 -0.975207D-01  0.601408D-01 -0.207189D-01  0.292456D-01 -0.451107D-03
      8  0.301494D-01 -0.452514D+00  0.154526D+00  0.133115D-01 -0.114585D+00
      9 -0.790854D-02  0.163787D+00 -0.186422D+00 -0.205731D-02 -0.296063D-01
     10  0.000000D+00  0.000000D+00  0.000000D+00  0.000000D+00  0.000000D+00
     11  0.000000D+00  0.000000D+00  0.000000D+00  0.000000D+00  0.000000D+00
     12  0.000000D+00  0.000000D+00  0.000000D+00  0.000000D+00  0.000000D+00
     13 -0.201278D+00 -0.302974D-01  0.206443D+00  0.158960D-01  0.681782D-02
     14 -0.259781D-01 -0.120916D+00  0.475481D-01  0.187273D-01  0.113739D-01
     15  0.172865D+00  0.461821D-01 -0.415530D+00  0.446974D-01 -0.445603D-01
                6             7             8             9            10 
      6  0.337153D+00
      7 -0.473031D-02  0.496940D-01
      8 -0.836494D-02 -0.325091D-01  0.590451D+00
      9  0.282272D-01 -0.870707D-02 -0.210563D+00  0.210644D+00
     10  0.000000D+00  0.000000D+00  0.000000D+00  0.000000D+00  0.000000D+00
     11  0.000000D+00  0.000000D+00  0.000000D+00  0.000000D+00  0.000000D+00
     12  0.000000D+00  0.000000D+00  0.000000D+00  0.000000D+00  0.000000D+00
     13  0.266030D-01  0.185811D-01 -0.109517D-01  0.186729D-01  0.000000D+00
     14 -0.579064D-01 -0.271806D-01 -0.233526D-01  0.763819D-01  0.000000D+00
     15 -0.844022D-01  0.341562D-01  0.644018D-01 -0.524491D-01  0.000000D+00
               11            12            13            14            15 
     11  0.000000D+00
     12  0.000000D+00  0.000000D+00
     13  0.000000D+00  0.000000D+00  0.166801D+00
     14  0.000000D+00  0.000000D+00  0.344313D-01  0.132895D+00
     15  0.000000D+00  0.000000D+00 -0.251719D+00 -0.660236D-01  0.552382D+00
 Leave Link  703 at Wed Mar 22 15:42:42 2017, MaxMem=   655360000 cpu:         1.3
 (Enter /mnt/software/gaussian/g09/l716.exe)
 FrcOut:
 IF    =    42 IFX   =    57 IFXYZ =    72
 IFFX  =    87 IFFFX =   207 IFLen =    15
 IFFLen=   120 IFFFLn=     0 IEDerv=   207
 LEDerv=   773 IFroze=  1169 ICStrt= 12633
 Dipole        =-5.05019967D+00 2.04286762D-03 1.74272586D-01
 DipoleDeriv   = 1.34497851D+00-1.28085212D-03-3.15976389D-01
                -1.03200755D-03 2.36725458D+00-1.34572872D-03
                -3.15730322D-01-1.47044627D-03 2.27033632D+00
                -7.74213036D-02-8.18902373D-02-2.21260864D-02
                 7.35404235D-02-5.14415921D-01-2.14848454D-01
                 1.03635622D-01-2.62573951D-01-4.01688310D-01
                -8.00513136D-02 1.26959558D-01-1.08508114D-02
                -5.51230428D-02-6.23417127D-01 1.55682354D-01
                 6.70660477D-02 2.11629996D-01-2.90849198D-01
                -1.85711010D-04 1.37201619D-07 1.47741058D-06
                 3.14859985D-07 9.63906031D-05-1.78061334D-06
                 1.04856947D-06-2.45762592D-06 9.33016002D-05
                -1.87320185D-01-4.37886058D-02 3.48951810D-01
                -1.73856880D-02-2.29517923D-01 6.05136092D-02
                 1.45027604D-01 5.24168588D-02-5.77892109D-01
 Polarizability= 9.63252389D+00-2.59345821D-03 1.29830068D+01
                -9.81916010D-01-9.56159153D-02 1.25761333D+01
 PolarDeriv    = 3.82660827D+00 1.68370483D-02 1.71808332D+00
                 2.16905785D-02-4.64620816D-02 1.78059530D+00
                 1.43110894D-02 1.70866545D+00-1.58707628D-01
                -4.95555704D-02 9.41712377D-01 1.56546958D-01
                 2.16100511D-02-4.87301994D-02 9.44134602D-01
                 1.76887581D+00 1.57779057D-01 1.30351640D+00
                -6.05798507D-01-1.01999930D+00-3.44014184D-01
                -9.12365089D-01 8.58927754D-02-1.89775673D-01
                -4.71894088D-01-3.03380140D-01-3.97716630D+00
                -9.01869240D-02-1.42993488D+00-1.24961383D+00
                -5.65070077D-01-1.34781244D-01-1.11572993D+00
                -1.85376100D-02-1.60078443D+00-3.28400398D+00
                -8.33580202D-01 1.22672617D+00-4.74889702D-01
                -6.20544506D-01-8.41157002D-02-3.35768296D-01
                 6.16279828D-01-5.70487184D-01 4.76595641D+00
                 3.36729141D-02-1.05270909D+00 1.27402996D+00
                -4.43885545D-01 7.66660852D-02-8.21027709D-01
                -1.09062498D-01 1.71105963D+00-2.09644168D+00
                -3.16708416D-04 1.72292737D-05 1.87308982D-04
                -8.64463033D-06 2.01322334D-05 1.94043396D-04
                 2.99816382D-07-1.30101403D-03-1.98922482D-05
                 8.97028142D-04-1.29964869D-05 2.28457477D-05
                -1.61600630D-05 8.97874201D-04 1.43644848D-05
                -3.59578335D-04 7.39102363D-06-2.39598670D-05
                -2.38691286D+00-2.23581142D-01-8.99366739D-01
                 1.51122766D+00 4.46648742D-02-1.25524537D+00
                -1.58697129D-01-8.33497112D-01-6.30062595D-01
                 1.05172552D-01 1.54094460D+00-1.80985932D-01
                 9.87361731D-01 1.05947484D-01 9.92608672D-01
                -1.64091613D+00-2.68061644D-01 4.07695322D+00
 HyperPolar    = 8.82218909D+00 2.34902373D-01 5.13512199D+00
                -2.75529153D+00-2.85455392D+00-1.47570744D-01
                 8.71400700D+00 7.98322544D+00 2.54502702D+00
                 1.38530356D+00
 VibFq2-Diag1:  N=     15 IV=           6 MDV=   655346161 NE2=    43689743
 Full mass-weighted force constant matrix:
 Low frequencies ---   -0.8264   -0.0019   -0.0014   -0.0010    0.4074    0.6250
 Low frequencies ---   33.2788  108.9486  110.9306
 OrtVCM:  Ph=1 IPass= 1 DotMx1= 0.00D+00
 OrtVCM:  IS=    1 I=    1 IndO=    1 Dot= 1.00D+00 DotN= 1.00D+00 ElMax1= 4.65D-01 ElMax1N= 4.65D-01
 OrtVCM:  Ph=2 NNew=    0 IAdd=    2 IPass= 1 DotMx2= 0.00D+00
 OrtVCM:  IS=    1 I=    2 IndO=    2 Dot= 1.00D+00 DotN= 1.00D+00 ElMax1= 4.65D-01 ElMax1N= 4.65D-01
 OrtVCM:  Ph=2 NNew=    0 IAdd=    3 IPass= 1 DotMx2= 0.00D+00
 OrtVCM:  IS=    1 I=    3 IndO=    3 Dot= 1.00D+00 DotN= 1.00D+00 ElMax1= 4.65D-01 ElMax1N= 4.65D-01
 OrtVCM:  Ph=2 NNew=    0 IAdd=    4 IPass= 1 DotMx2= 6.94D-17
 OrtVCM:  IS=    1 I=    4 IndO=    4 Dot= 1.00D+00 DotN= 1.00D+00 ElMax1= 5.46D-01 ElMax1N= 5.46D-01
 OrtVCM:  Ph=2 NNew=    0 IAdd=    5 IPass= 1 DotMx2= 9.99D-16
 OrtVCM:  IS=    1 I=    5 IndO=    5 Dot= 1.00D+00 DotN= 1.00D+00 ElMax1= 8.79D-01 ElMax1N= 8.79D-01
 OrtVCM:  Ph=2 NNew=    0 IAdd=    6 IPass= 1 DotMx2= 8.33D-17
 OrtVCM:  IS=    1 I=    6 IndO=    6 Dot= 1.00D+00 DotN= 1.00D+00 ElMax1= 8.79D-01 ElMax1N= 8.79D-01
 OrtVCM:  Ph=1 IPass= 1 DotMx1= 5.46D-01
 OrtVCM:  Ph=1 IPass= 2 DotMx1= 8.33D-17
 OrtVCM:  IS=    1 I=    1 IndO=    7 Dot= 8.64D-01 DotN= 8.64D-01 ElMax1= 8.64D-01 ElMax1N= 8.64D-01
 OrtVCM:  Ph=2 NNew=    0 IAdd=    2 IPass= 1 DotMx2= 5.77D-06
 OrtVCM:  Ph=2 NNew=    0 IAdd=    2 IPass= 2 DotMx2= 5.83D-19
 OrtVCM:  IS=    1 I=    2 IndO=    8 Dot= 8.32D-01 DotN= 8.32D-01 ElMax1= 8.32D-01 ElMax1N= 8.32D-01
 OrtVCM:  Ph=2 NNew=    0 IAdd=    3 IPass= 1 DotMx2= 8.07D-04
 OrtVCM:  Ph=2 NNew=    0 IAdd=    3 IPass= 2 DotMx2= 9.76D-19
 OrtVCM:  IS=    1 I=    3 IndO=    9 Dot= 8.33D-01 DotN= 8.33D-01 ElMax1= 8.33D-01 ElMax1N= 8.33D-01
 OrtVCM:  Ph=2 NNew=    0 IAdd=    4 IPass= 1 DotMx2= 1.84D-01
 OrtVCM:  Ph=2 NNew=    0 IAdd=    4 IPass= 2 DotMx2= 3.47D-17
 OrtVCM:  IS=    1 I=    4 IndO=   10 Dot= 7.41D-01 DotN= 7.41D-01 ElMax1= 7.41D-01 ElMax1N= 7.41D-01
 OrtVCM:  Ph=2 NNew=    0 IAdd=    5 IPass= 1 DotMx2= 2.22D-01
 OrtVCM:  Ph=2 NNew=    0 IAdd=    5 IPass= 2 DotMx2= 5.55D-17
 OrtVCM:  IS=    1 I=    5 IndO=   11 Dot= 5.53D-01 DotN= 5.53D-01 ElMax1= 5.53D-01 ElMax1N= 5.53D-01
 OrtVCM:  Ph=2 NNew=    0 IAdd=    6 IPass= 1 DotMx2= 2.32D-01
 OrtVCM:  Ph=2 NNew=    0 IAdd=    6 IPass= 2 DotMx2= 4.86D-17
 OrtVCM:  IS=    1 I=    6 IndO=   12 Dot= 4.11D-01 DotN= 4.11D-01 ElMax1= 4.11D-01 ElMax1N= 4.11D-01
 OrtVCM:  Ph=2 NNew=    0 IAdd=    7 IPass= 1 DotMx2= 2.85D-01
 OrtVCM:  Ph=2 NNew=    0 IAdd=    7 IPass= 2 DotMx2= 9.71D-17
 OrtVCM:  IS=    1 I=    7 IndO=   13 Dot= 6.58D-01 DotN= 6.58D-01 ElMax1= 6.58D-01 ElMax1N= 6.58D-01
 OrtVCM:  Ph=2 NNew=    0 IAdd=    8 IPass= 1 DotMx2= 5.41D-01
 OrtVCM:  Ph=2 NNew=    0 IAdd=    8 IPass= 2 DotMx2= 9.63D-17
 OrtVCM:  IS=    1 I=    8 IndO=   14 Dot= 2.09D-01 DotN= 2.09D-01 ElMax1= 2.54D-01 ElMax1N= 2.54D-01
 OrtVCM:  Ph=2 NNew=    0 IAdd=    9 IPass= 1 DotMx2= 5.55D-01
 OrtVCM:  Ph=2 NNew=    0 IAdd=    9 IPass= 2 DotMx2= 1.09D-16
 OrtVCM:  IS=    1 I=    9 IndO=    0 Dot= 3.65D-32 DotN= 3.65D-32 ElMax1= 1.13D-16 ElMax1N= 1.13D-16
 SchOr2:  IPass= 1 Test2A= 1.00D-01 IOff=     0 NDo=     9 NNew=     8
 OrtVCM:  Ph=1 IPass= 1 DotMx1= 4.65D-01
 OrtVCM:  Ph=1 IPass= 2 DotMx1= 1.64D-16
 OrtVCM:  IS=    1 I=    1 IndO=   15 Dot= 4.97D-01 DotN= 4.97D-01 ElMax1= 4.97D-01 ElMax1N= 4.97D-01
 SchOr2:  IPass= 1 Test2A= 1.00D-01 IOff=     9 NDo=     1 NNew=     1
 VibFq2-Diag2:  N=      9 IV=           6 MDV=   655346161 NE2=    72816239
 ******    1 imaginary frequencies (negative Signs) ****** 
 Dipole derivatives wrt mode   1: -1.74812D+00 -2.25352D-05 -6.76340D-03
 Polarizability derivatives wrt mode          1
                 1             2             3 
      1  -0.232126D-04  0.155765D-05  0.000000D+00
      2   0.155765D-05  0.135115D-04  0.147267D-05
      3   0.000000D+00  0.147267D-05  0.138636D-04
 Vibrational polarizability contributions from mode   1  120439.9525620       0.0000200       1.8028337
 IFr=  0 A012= 0.26D-10 0.83D-08 0.14D-08 Act= 0.97D-08 DepolP= 0.74D+00 DepolU= 0.85D+00
 Dipole derivatives wrt mode   2: -5.24165D-02 -5.40724D-01  2.58953D-01
 Polarizability derivatives wrt mode          2
                 1             2             3 
      1   0.209151D-01  0.770652D-01 -0.295239D-01
      2   0.770652D-01  0.974081D-02  0.152480D-01
      3  -0.295239D-01  0.152480D-01 -0.305818D-01
 Vibrational polarizability contributions from mode   2       0.0064709       0.6886207       0.1579325
 IFr=  0 A012= 0.82D-08 0.14D+00 0.23D-01 Act= 0.16D+00 DepolP= 0.75D+00 DepolU= 0.86D+00
 Dipole derivatives wrt mode   3: -1.03700D-01  2.61891D-01  5.28984D-01
 Polarizability derivatives wrt mode          3
                 1             2             3 
      1   0.445213D-01 -0.392430D-01 -0.636796D-01
      2  -0.392430D-01  0.839112D-02 -0.218164D-02
      3  -0.636796D-01 -0.218164D-02 -0.527048D-01
 Vibrational polarizability contributions from mode   3       0.0243144       0.1550775       0.6326920
 IFr=  0 A012= 0.65D-07 0.14D+00 0.24D-01 Act= 0.17D+00 DepolP= 0.75D+00 DepolU= 0.86D+00
 Dipole derivatives wrt mode   4: -1.00808D-02  3.87337D+00  1.59377D-02
 Polarizability derivatives wrt mode          4
                 1             2             3 
      1  -0.650179D-02  0.656573D-01  0.205877D-01
      2   0.656573D-01  0.721571D-01 -0.159083D+00
      3   0.205877D-01 -0.159083D+00 -0.662704D-01
 Vibrational polarizability contributions from mode   4       0.0000065       0.9619316       0.0000163
 IFr=  0 A012= 0.57D-06 0.63D+00 0.10D+00 Act= 0.73D+00 DepolP= 0.75D+00 DepolU= 0.86D+00
 Dipole derivatives wrt mode   5: -1.13773D+00 -2.16282D-02  3.70377D+00
 Polarizability derivatives wrt mode          5
                 1             2             3 
      1   0.595208D-02  0.213107D-01 -0.352526D-01
      2   0.213107D-01 -0.171711D+00 -0.691067D-01
      3  -0.352526D-01 -0.691067D-01  0.165067D+00
 Vibrational polarizability contributions from mode   5       0.0829540       0.0000300       0.8791105
 IFr=  0 A012= 0.72D-06 0.63D+00 0.10D+00 Act= 0.73D+00 DepolP= 0.75D+00 DepolU= 0.86D+00
 Dipole derivatives wrt mode   6:  8.73282D+00  8.74827D-03  2.69367D+00
 Polarizability derivatives wrt mode          6
                 1             2             3 
      1   0.222289D+00  0.458398D-03  0.816050D-01
      2   0.458398D-03 -0.412117D-01  0.231919D-03
      3   0.816050D-01  0.231919D-03 -0.160527D-01
 Vibrational polarizability contributions from mode   6       2.7647839       0.0000028       0.2630520
 IFr=  0 A012= 0.41D-01 0.58D+00 0.97D-01 Act= 0.72D+00 DepolP= 0.53D+00 DepolU= 0.70D+00
 Dipole derivatives wrt mode   7:  5.19608D+00  6.11236D-02  1.68131D+00
 Polarizability derivatives wrt mode          7
                 1             2             3 
      1   0.260679D+00  0.317462D-03 -0.404639D-01
      2   0.317462D-03  0.395520D+00  0.666956D-03
      3  -0.404639D-01  0.666956D-03  0.382693D+00
 Vibrational polarizability contributions from mode   7       0.5420446       0.0000750       0.0567517
 IFr=  0 A012= 0.16D+01 0.34D+01 0.56D+00 Act= 0.55D+01 DepolP= 0.12D-01 DepolU= 0.23D-01
 Dipole derivatives wrt mode   8: -3.14503D+00  1.89415D+01  1.00422D+01
 Polarizability derivatives wrt mode          8
                 1             2             3 
      1  -0.521619D-01  0.123408D+00  0.758296D-01
      2   0.123408D+00  0.931035D-02  0.142051D+00
      3   0.758296D-01  0.142051D+00  0.393275D-01
 Vibrational polarizability contributions from mode   8       0.0977562       3.5458713       0.9966741
 IFr=  0 A012= 0.19D-04 0.78D+00 0.13D+00 Act= 0.91D+00 DepolP= 0.75D+00 DepolU= 0.86D+00
 Dipole derivatives wrt mode   9: -5.58639D+00 -1.05368D+01  1.81175D+01
 Polarizability derivatives wrt mode          9
                 1             2             3 
      1  -0.986049D-01 -0.819994D-01  0.159572D+00
      2  -0.819994D-01  0.981139D-01 -0.357680D-01
      3   0.159572D+00 -0.357680D-01 -0.907782D-03
 Vibrational polarizability contributions from mode   9       0.3068302       1.0915782       3.2272548
 IFr=  0 A012= 0.29D-05 0.78D+00 0.13D+00 Act= 0.91D+00 DepolP= 0.75D+00 DepolU= 0.86D+00
 Diagonal vibrational polarizability:
   120443.7777226       6.4432071       8.0163175
 Diagonal vibrational hyperpolarizability:
      188.4816980       0.3077921      -3.4767010
 NorSel:  MapVib=      1      2      3      4      5      6      7      8      9
 Harmonic frequencies (cm**-1), IR intensities (KM/Mole), Raman scattering
 activities (A**4/AMU), depolarization ratios for plane and unpolarized
 incident light, reduced masses (AMU), force constants (mDyne/A),
 and normal coordinates:
                           1         2         3         4         5
                           A         A         A         A         A
       Frequencies ---    -0.8263  106.8938  109.0971  647.8631  648.0210
    Reduced masses ---    18.5912   18.8862   18.8856   18.1585   18.1562
   Force constants ---     0.0000    0.1271    0.1324    4.4905    4.4921
    IR Intensities ---     3.0560    0.3622    0.3592   15.0033   15.0128
  Raman Activities ---     0.0000    0.1633    0.1683    0.7321    0.7320
    Depol. (Plane) ---     0.7384    0.7500    0.7500    0.7500    0.7500
    Depol. (Unpol) ---     0.8495    0.8571    0.8571    0.8571    0.8571
 Coord Atom Element:
   1     1     6         -0.24120  -0.01291  -0.02578  -0.00093  -0.10166
   2     1     6          0.00000  -0.11370   0.05534   0.34642  -0.00189
   3     1     6         -0.00094   0.05424   0.11133   0.00147   0.33167
   1     2     9         -0.24120  -0.36206   0.70178  -0.12717   0.08109
   2     2     9          0.00000  -0.08375  -0.00456   0.07434   0.51915
   3     2     9         -0.00094   0.02411   0.17090   0.49455  -0.19157
   1     3     9         -0.24120   0.78719  -0.06336   0.08138   0.14627
   2     3     9          0.00000  -0.00887   0.03762   0.31432  -0.37823
   3     3     9         -0.00094   0.12682   0.07953  -0.36069  -0.42624
   1     4     9          0.87594   0.00017   0.00036   0.00000   0.00004
   2     4     9          0.00001   0.09591  -0.04675  -0.00931   0.00005
   3     4     9          0.00340  -0.04576  -0.09391  -0.00003  -0.00938
   1     5     9         -0.24120  -0.41715  -0.62249   0.04638  -0.16318
   2     5     9          0.00000   0.06853  -0.02126  -0.59816  -0.13977
   3     5     9         -0.00094  -0.13943  -0.22684  -0.13476   0.41770
                           6         7         8         9
                           A         A         A         A
       Frequencies ---   861.5698 1157.7776 1650.1344 1654.4314
    Reduced masses ---    14.0622   16.8016   13.2572   13.2569
   Force constants ---     6.1502   13.2694   21.2687   21.3792
    IR Intensities ---    83.5181   29.8298  469.5174  470.4770
  Raman Activities ---     0.7201    5.5472    0.9101    0.9060
    Depol. (Plane) ---     0.5326    0.0118    0.7499    0.7500
    Depol. (Unpol) ---     0.6951    0.0233    0.8571    0.8571
 Coord Atom Element:
   1     1     6          0.80254   0.53419  -0.13244  -0.23362
   2     1     6          0.00089   0.00351   0.79167  -0.43984
   3     1     6          0.24751   0.16890   0.41960   0.75654
   1     2     9         -0.21626  -0.02887  -0.01001   0.00901
   2     2     9          0.20425  -0.36753  -0.26254  -0.01432
   3     2     9          0.09896  -0.30668  -0.21194  -0.06308
   1     3     9         -0.19757  -0.06113   0.03004  -0.01761
   2     3     9         -0.23967   0.42819  -0.20681   0.23033
   3     3     9          0.04179  -0.20321   0.06354  -0.13746
   1     4     9          0.00000   0.00000   0.00001   0.00001
   2     4     9          0.00005  -0.00001  -0.00330   0.00182
   3     4     9          0.00007  -0.00001  -0.00184  -0.00329
   1     5     9         -0.09308  -0.24741   0.06362   0.15614
   2     5     9          0.03481  -0.06288  -0.02740   0.05999
   3     5     9         -0.29715   0.40323  -0.11480  -0.27402
 Harmonic frequencies (cm**-1), IR intensities (KM/Mole), Raman scattering
 activities (A**4/AMU), depolarization ratios for plane and unpolarized
 incident light, reduced masses (AMU), force constants (mDyne/A),
 and normal coordinates:
                      1                      2                      3
                      A                      A                      A
 Frequencies --     -0.8263               106.8938               109.0971
 Red. masses --     18.5912                18.8862                18.8856
 Frc consts  --      0.0000                 0.1271                 0.1324
 IR Inten    --      3.0560                 0.3622                 0.3592
 Raman Activ --      0.0000                 0.1633                 0.1683
 Depolar (P) --      0.7384                 0.7500                 0.7500
 Depolar (U) --      0.8495                 0.8571                 0.8571
  Atom  AN      X      Y      Z        X      Y      Z        X      Y      Z
     1   6    -0.24   0.00   0.00    -0.01  -0.11   0.05    -0.03   0.06   0.11
     2   9    -0.24   0.00   0.00    -0.36  -0.08   0.02     0.70   0.00   0.17
     3   9    -0.24   0.00   0.00     0.79  -0.01   0.13    -0.06   0.04   0.08
     4   9     0.88   0.00   0.00     0.00   0.10  -0.05     0.00  -0.05  -0.09
     5   9    -0.24   0.00   0.00    -0.42   0.07  -0.14    -0.62  -0.02  -0.23
                      4                      5                      6
                      A                      A                      A
 Frequencies --    647.8631               648.0210               861.5698
 Red. masses --     18.1585                18.1562                14.0622
 Frc consts  --      4.4905                 4.4921                 6.1502
 IR Inten    --     15.0033                15.0128                83.5181
 Raman Activ --      0.7321                 0.7320                 0.7201
 Depolar (P) --      0.7500                 0.7500                 0.5326
 Depolar (U) --      0.8571                 0.8571                 0.6951
  Atom  AN      X      Y      Z        X      Y      Z        X      Y      Z
     1   6     0.00   0.35   0.00    -0.10   0.00   0.33     0.80   0.00   0.25
     2   9    -0.13   0.07   0.49     0.08   0.52  -0.19    -0.22   0.20   0.10
     3   9     0.08   0.31  -0.36     0.15  -0.38  -0.43    -0.20  -0.24   0.04
     4   9     0.00  -0.01   0.00     0.00   0.00  -0.01     0.00   0.00   0.00
     5   9     0.05  -0.60  -0.13    -0.16  -0.14   0.42    -0.09   0.03  -0.30
                      7                      8                      9
                      A                      A                      A
 Frequencies --   1157.7776              1650.1344              1654.4314
 Red. masses --     16.8016                13.2572                13.2569
 Frc consts  --     13.2694                21.2687                21.3792
 IR Inten    --     29.8298               469.5174               470.4770
 Raman Activ --      5.5472                 0.9101                 0.9060
 Depolar (P) --      0.0118                 0.7499                 0.7500
 Depolar (U) --      0.0233                 0.8571                 0.8571
  Atom  AN      X      Y      Z        X      Y      Z        X      Y      Z
     1   6     0.53   0.00   0.17    -0.13   0.79   0.42    -0.23  -0.44   0.76
     2   9    -0.03  -0.37  -0.31    -0.01  -0.26  -0.21     0.01  -0.01  -0.06
     3   9    -0.06   0.43  -0.20     0.03  -0.21   0.06    -0.02   0.23  -0.14
     4   9     0.00   0.00   0.00     0.00   0.00   0.00     0.00   0.00   0.00
     5   9    -0.25  -0.06   0.40     0.06  -0.03  -0.11     0.16   0.06  -0.27

 -------------------
 - Thermochemistry -
 -------------------
 Temperature   298.150 Kelvin.  Pressure   1.00000 Atm.
 Atom     1 has atomic number  6 and mass  12.00000
 Atom     2 has atomic number  9 and mass  18.99840
 Atom     3 has atomic number  9 and mass  18.99840
 Atom     4 has atomic number  9 and mass  18.99840
 Atom     5 has atomic number  9 and mass  18.99840
 Molecular mass:    87.99361 amu.
 Principal axes and moments of inertia in atomic units:
                           1         2         3
     Eigenvalues --   281.01656********************
           X            1.00000   0.00000  -0.00004
           Y            0.00000   1.00000   0.00001
           Z            0.00004  -0.00001   1.00000
 This molecule is an asymmetric top.
 Rotational symmetry number  1.
 Rotational temperatures (Kelvin)      0.30822     0.00815     0.00814
 Rotational constants (GHZ):           6.42219     0.16985     0.16965
    1 imaginary frequencies ignored.
 Zero-point vibrational energy      40887.1 (Joules/Mol)
                                    9.77225 (Kcal/Mol)
 Warning -- explicit consideration of   2 degrees of freedom as
           vibrations may cause significant error
 Vibrational temperatures:    153.80   156.97   932.13   932.36  1239.61
          (Kelvin)           1665.78  2374.17  2380.35
 
 Zero-point correction=                           0.015573 (Hartree/Particle)
 Thermal correction to Energy=                    0.020203
 Thermal correction to Enthalpy=                  0.021147
 Thermal correction to Gibbs Free Energy=        -0.016924
 Sum of electronic and zero-point Energies=           -435.104293
 Sum of electronic and thermal Energies=              -435.099663
 Sum of electronic and thermal Enthalpies=            -435.098719
 Sum of electronic and thermal Free Energies=         -435.136790
 
                     E (Thermal)             CV                S
                      KCal/Mol        Cal/Mol-Kelvin    Cal/Mol-Kelvin
 Total                   12.677             12.587             80.126
 Electronic               0.000              0.000              1.377
 Translational            0.889              2.981             39.337
 Rotational               0.889              2.981             31.830
 Vibrational             10.900              6.626              7.582
 Vibration     1          0.606              1.944              3.325
 Vibration     2          0.606              1.942              3.285
                       Q            Log10(Q)             Ln(Q)
 Total Bot       0.608500D+08          7.784261         17.923923
 Total V=0       0.885852D+15         14.947361         34.417571
 Vib (Bot)       0.464811D-06         -6.332724        -14.581635
 Vib (Bot)    1  0.191728D+01          0.282685          0.650907
 Vib (Bot)    2  0.187769D+01          0.273625          0.630044
 Vib (V=0)       0.676670D+01          0.830377          1.912013
 Vib (V=0)    1  0.248140D+01          0.394697          0.908824
 Vib (V=0)    2  0.244312D+01          0.387946          0.893278
 Electronic      0.200000D+01          0.301030          0.693147
 Translational   0.324438D+08          7.511132         17.295020
 Rotational      0.201754D+07          6.304822         14.517390
 
                                                                 CF4+
                                                             IR Spectrum
 
     11                                     1                                                                                        
     66                                     1                     8                6                                       11        
     55                                     5                     6                4                                       00        
     40                                     8                     2                8                                       97        
 
     XX                                     X                     X                X                                       XX        
     XX                                                           X                                                                  
     XX                                                           X                                                                  
     XX                                                           X                                                                  
     XX                                                                                                                              
     XX                                                                                                                              
     XX                                                                                                                              
     XX                                                                                                                              
     XX                                                                                                                              
     XX                                                                                                                              
     XX                                                                                                                              
     XX                                                                                                                              
     XX                                                                                                                              
     XX                                                                                                                              
     XX                                                                                                                              
     XX                                                                                                                              
     XX                                                                                                                              
     XX                                                                                                                              
     XX                                                                                                                              
     XX                                                                                                                              
 
 
                                                                 CF4+
                                                            Raman Spectrum
 
     11                                     1                                                                                        
     66                                     1                     8                6                                       11        
     55                                     5                     6                4                                       00        
     40                                     8                     2                8                                       97        
 
     XX                                     X                     X                X                                       XX        
     XX                                     X                     X                X                                                 
     XX                                     X                     X                X                                                 
                                            X                                      X                                                 
                                            X                                      X                                                 
                                            X                                                                                        
                                            X                                                                                        
                                            X                                                                                        
                                            X                                                                                        
                                            X                                                                                        
                                            X                                                                                        
                                            X                                                                                        
                                            X                                                                                        
                                            X                                                                                        
                                            X                                                                                        
                                            X                                                                                        
                                            X                                                                                        
                                            X                                                                                        
                                            X                                                                                        
                                            X                                                                                        
 
 Forces in standard orientation:
 -------------------------------------------------------------------
 Center     Atomic                   Forces (Hartrees/Bohr)
 Number     Number              X              Y              Z
 -------------------------------------------------------------------
      1        6           0.173871565    0.000873963    0.054617686
      2        9          -0.057734492   -0.002061203   -0.019440217
      3        9          -0.057829820    0.001430133   -0.018500934
      4        9           0.000002411    0.000000009   -0.000000018
      5        9          -0.058309665   -0.000242902   -0.016676516
 -------------------------------------------------------------------
 ***** Axes restored to original set *****
 Rotating derivatives, DoTrsp=F IDiff=-2 LEDeriv=    772 LFDPrp=       0 LDFDPr=       0.
 -------------------------------------------------------------------
 Center     Atomic                   Forces (Hartrees/Bohr)
 Number     Number              X              Y              Z
 -------------------------------------------------------------------
      1        6           0.086773127    0.159126785   -0.019085787
      2        9          -0.030903084   -0.052178574    0.006151253
      3        9          -0.027775522   -0.053754888    0.005248838
      4        9           0.000000744    0.000002117   -0.000000882
      5        9          -0.028095265   -0.053195440    0.007686578
 -------------------------------------------------------------------
 Cartesian Forces:  Max     0.159126785 RMS     0.054342996
 Z-matrix is all fixed cartesians, so copy forces.
 Force constants in Cartesian coordinates: 
                1             2             3             4             5 
      1  0.799450D+00
      2 -0.244918D+00  0.478468D+00
      3  0.300405D-01  0.556743D-01  0.929596D+00
      4 -0.495716D+00  0.120151D+00 -0.521377D-01  0.609396D+00
      5  0.867797D-01 -0.117926D+00  0.794221D-02 -0.187901D+00  0.106731D+00
      6 -0.465459D-01  0.107273D-01 -0.119690D+00  0.722922D-01 -0.129888D-01
      7 -0.170144D+00  0.908707D-01  0.110806D+00 -0.660271D-01  0.639998D-01
      8  0.111958D+00 -0.230141D+00 -0.187890D+00  0.441035D-01 -0.492751D-02
      9  0.121323D+00 -0.163516D+00 -0.336172D+00  0.347005D-01 -0.276510D-01
     10  0.000000D+00  0.000000D+00  0.000000D+00  0.000000D+00  0.000000D+00
     11  0.000000D+00  0.000000D+00  0.000000D+00  0.000000D+00  0.000000D+00
     12  0.000000D+00  0.000000D+00  0.000000D+00  0.000000D+00  0.000000D+00
     13 -0.133590D+00  0.338962D-01 -0.887088D-01 -0.476531D-01  0.371214D-01
     14  0.461801D-01 -0.130401D+00  0.124273D+00  0.236463D-01  0.161227D-01
     15 -0.104818D+00  0.971147D-01 -0.473733D+00 -0.548549D-01  0.326976D-01
                6             7             8             9            10 
      6  0.131449D+00
      7  0.505648D-01  0.202849D+00
      8 -0.281091D-01 -0.156875D+00  0.213010D+00
      9  0.138430D-01 -0.171092D+00  0.226894D+00  0.434930D+00
     10  0.000000D+00  0.000000D+00  0.000000D+00  0.000000D+00  0.000000D+00
     11  0.000000D+00  0.000000D+00  0.000000D+00  0.000000D+00  0.000000D+00
     12  0.000000D+00  0.000000D+00  0.000000D+00  0.000000D+00  0.000000D+00
     13 -0.763111D-01  0.333219D-01  0.812853D-03  0.150691D-01  0.000000D+00
     14  0.303706D-01  0.200401D-02  0.220585D-01 -0.357274D-01  0.000000D+00
     15 -0.256019D-01  0.972168D-02 -0.108955D-01 -0.112601D+00  0.000000D+00
               11            12            13            14            15 
     11  0.000000D+00
     12  0.000000D+00  0.000000D+00
     13  0.000000D+00  0.000000D+00  0.147922D+00
     14  0.000000D+00  0.000000D+00 -0.718304D-01  0.922199D-01
     15  0.000000D+00  0.000000D+00  0.149951D+00 -0.118917D+00  0.611936D+00
 Final forces over variables, Energy=-4.35119866D+02:
  8.67731271D-02-3.09030842D-02-2.77755217D-02 7.43699801D-07
 -2.80952649D-02 1.59126785D-01-5.21785741D-02-5.37548884D-02
  2.11730131D-06-5.31954396D-02-1.90857866D-02 6.15125296D-03
  5.24883790D-03-8.82438375D-07 7.68657815D-03
 Leave Link  716 at Wed Mar 22 15:42:42 2017, MaxMem=   655360000 cpu:         0.0
 (Enter /mnt/software/gaussian/g09/l103.exe)

 GradGradGradGradGradGradGradGradGradGradGradGradGradGradGradGradGradGrad
 Berny optimization.
 Search for a local minimum.
 Step number   1 out of a maximum of    2
 All quantities printed in internal units (Hartrees-Bohrs-Radians)
 Second derivative matrix not updated -- analytic derivatives used.
 The second derivative matrix:
                          X1        Y1        Z1        X2        Y2
           X1           0.79945
           Y1          -0.24492   0.47847
           Z1           0.03004   0.05567   0.92960
           X2          -0.49572   0.12015  -0.05214   0.60940
           Y2           0.08678  -0.11793   0.00794  -0.18790   0.10673
           Z2          -0.04655   0.01073  -0.11969   0.07229  -0.01299
           X3          -0.17014   0.09087   0.11081  -0.06603   0.06400
           Y3           0.11196  -0.23014  -0.18789   0.04410  -0.00493
           Z3           0.12132  -0.16352  -0.33617   0.03470  -0.02765
           X4           0.00000   0.00000   0.00000   0.00000   0.00000
           Y4           0.00000   0.00000   0.00000   0.00000   0.00000
           Z4           0.00000   0.00000   0.00000   0.00000   0.00000
           X5          -0.13359   0.03390  -0.08871  -0.04765   0.03712
           Y5           0.04618  -0.13040   0.12427   0.02365   0.01612
           Z5          -0.10482   0.09711  -0.47373  -0.05485   0.03270
                          Z2        X3        Y3        Z3        X4
           Z2           0.13145
           X3           0.05056   0.20285
           Y3          -0.02811  -0.15687   0.21301
           Z3           0.01384  -0.17109   0.22689   0.43493
           X4           0.00000   0.00000   0.00000   0.00000   0.00000
           Y4           0.00000   0.00000   0.00000   0.00000   0.00000
           Z4           0.00000   0.00000   0.00000   0.00000   0.00000
           X5          -0.07631   0.03332   0.00081   0.01507   0.00000
           Y5           0.03037   0.00200   0.02206  -0.03573   0.00000
           Z5          -0.02560   0.00972  -0.01090  -0.11260   0.00000
                          Y4        Z4        X5        Y5        Z5
           Y4           0.00000
           Z4           0.00000   0.00000
           X5           0.00000   0.00000   0.14792
           Y5           0.00000   0.00000  -0.07183   0.09222
           Z5           0.00000   0.00000   0.14995  -0.11892   0.61194
 ITU=  0
     Eigenvalues ---    0.00000   0.00818   0.00852   0.28857   0.28870
     Eigenvalues ---    0.39412   0.90288   1.41885   1.42635
 Eigenvalue     1 is  -4.81D-07 should be greater than     0.000000 Eigenvector:
                          Y4        Z4        X4        Y5        Y1
   1                    0.78040  -0.31480   0.27647  -0.20448  -0.20448
                          Y2        Y3        Z1        Z5        Z2
   1                   -0.20448  -0.20448   0.08248   0.08248   0.08248
 Quadratic step=5.113D+00 exceeds max=3.000D-01 adjusted using Lamda=-2.762D-01.
 Angle between NR and scaled steps=  84.32 degrees.
 Angle between quadratic step and forces=   9.41 degrees.
 Linear search not attempted -- first point.
 TrRot= -0.004173 -0.008421  0.001667 -1.373253 -0.000132  1.373354
 MatCor failed.
 Variable       Old X    -DE/DX   Delta X   Delta X   Delta X     New X
                                 (Linear)    (Quad)   (Total)
    X1        0.22886   0.08677   0.00000   0.12675   0.12170   0.35056
    Y1        9.04455   0.15913   0.00000   0.23328   0.22463   9.26918
    Z1       -1.97987  -0.01909   0.00000  -0.02772  -0.02724  -2.00711
    X2        2.50935  -0.03090   0.00000  -0.01590  -0.02088   2.48847
    Y2        8.54801  -0.05218   0.00000  -0.07657  -0.08495   8.46306
    Z2       -1.70536   0.00615   0.00000   0.01212   0.01276  -1.69260
    X3       -0.64165  -0.02778   0.00000  -0.04697  -0.05218  -0.69383
    Y3       10.41634  -0.05375   0.00000  -0.05815  -0.06667  10.34967
    Z3       -0.28423   0.00525   0.00000   0.02664   0.02695  -0.25728
    X4       -7.81496   0.00000   0.00000   0.00304   0.00007  -7.81489
    Y4      -13.88000   0.00000   0.00000   0.00857   0.00032 -13.87968
    Z4        7.38529   0.00000   0.00000  -0.00343  -0.00017   7.38512
    X5       -0.31825  -0.02810   0.00000  -0.04366  -0.04871  -0.36696
    Y5        9.76838  -0.05320   0.00000  -0.06433  -0.07333   9.69506
    Z5       -4.14516   0.00769   0.00000  -0.01269  -0.01229  -4.15745
         Item               Value     Threshold  Converged?
 Maximum Force            0.159127     0.000450     NO 
 RMS     Force            0.054343     0.000300     NO 
 Maximum Displacement     0.224634     0.001800     NO 
 RMS     Displacement     0.077297     0.001200     NO 
 Predicted change in Energy=-4.361195D-02
 GradGradGradGradGradGradGradGradGradGradGradGradGradGradGradGradGradGrad

 Leave Link  103 at Wed Mar 22 15:42:42 2017, MaxMem=   655360000 cpu:         0.0
 (Enter /mnt/software/gaussian/g09/l9999.exe)

 Test job not archived.
 1\1\GINC-TP-LINUX1\Freq\UHF\6-31G(d)\C1F4(1+,2)\THOMAS\22-Mar-2017\0\\
 #P UHF/6-31g* SCF(XQC,Conver=7) IOP(7/33=1) IOP(7/8=11) Freq\\CF4+\\1,
 2\C,0.121109,4.786169,-1.047704\F,1.327892,4.523413,-0.902435\F,-0.339
 549,5.512092,-0.150406\F,-4.135501,-7.344979,3.908128\F,-0.168413,5.16
 9205,-2.193524\\Version=ES64L-G09RevD.01\State=2-A\HF=-435.1198662\S2=
 0.752673\S2-1=0.\S2A=0.750003\RMSD=2.909e-08\RMSF=5.434e-02\ZeroPoint=
 0.0155731\Thermal=0.0202028\Dipole=1.4611937,4.427925,-1.9476359\Dipol
 eDeriv=2.1179818,-0.4615305,0.0564361,-0.4618929,1.5089181,0.1053971,0
 .0564684,0.1054724,2.3556695,-0.630203,0.2923866,-0.0832843,0.0903553,
 -0.1364467,-0.006629,-0.0493491,0.0102291,-0.2268758,-0.2670042,0.1078
 596,0.1076309,0.2357156,-0.2404512,-0.2828953,0.1713008,-0.1347257,-0.
 4868623,0.0000669,-0.0000759,0.0000296,-0.0000761,-0.0001221,0.0000905
 ,0.0000288,0.0000903,0.0000592,-0.2208415,0.0613603,-0.0808123,0.13589
 81,-0.131898,0.1840367,-0.1784489,0.0189338,-0.6419907\Polar=12.074956
 1,-1.4725046,10.1884503,0.1161431,0.4106584,12.9282576\PolarDeriv=-2.7
 919885,-1.1606069,-0.2770078,0.0487119,0.0181601,-0.5496369,-1.1734685
 ,-0.275731,-3.717758,0.0167365,-0.0287156,-1.820448,0.0513473,0.018354
 ,-0.0274643,-0.5457817,-1.8126953,0.7936987,5.3410245,-0.6786653,0.861
 3794,0.309162,0.0627908,1.3285689,-0.5851285,1.502506,-0.4061844,-0.01
 54684,0.1021121,-0.0383337,0.2659172,0.0125445,-0.0244915,1.6824804,-0
 .4665436,0.5630029,-1.5720769,1.2085849,-0.4936407,1.1768506,-0.393211
 3,-0.4040941,1.0459537,-0.818474,2.6907835,-0.166493,1.3587011,1.16099
 71,0.6668025,-0.3714977,0.9894554,-0.6599454,1.4116275,3.6560235,-0.00
 00062,0.0000141,-0.0003737,-0.0002211,-0.0004647,0.0003726,-0.0003101,
 0.0000179,0.000857,0.0002662,0.0003607,-0.0005993,-0.0003105,-0.000325
 4,0.0011651,0.0006246,0.0008777,-0.0008093,-0.9769529,0.6306732,-0.090
 3571,-1.5345034,0.3127251,-0.3752105,0.7129534,-0.408319,1.4323019,0.1
 649586,-1.4324583,0.6983839,-0.9837565,0.3409246,-0.9386647,-0.4773779
 ,0.8667337,-5.0119158\HyperPolar=-14.6422383,-1.6617098,1.1646523,-9.0
 527293,-1.63835,0.7680583,-0.9528002,2.3836459,-9.4461724,4.6764511\PG
 =C01 [X(C1F4)]\NImag=1\\0.79945038,-0.24491822,0.47846776,0.03004054,0
 .05567428,0.92959581,-0.49571580,0.12015103,-0.05213774,0.60939598,0.0
 8677968,-0.11792637,0.00794221,-0.18790088,0.10673119,-0.04654587,0.01
 072729,-0.11969003,0.07229218,-0.01298885,0.13144895,-0.17014398,0.090
 87072,0.11080599,-0.06602714,0.06399983,0.05056479,0.20284914,0.111958
 21,-0.23014060,-0.18788952,0.04410352,-0.00492751,-0.02810913,-0.15687
 453,0.21300955,0.12132291,-0.16351583,-0.33617223,0.03470049,-0.027650
 99,0.01384297,-0.17109244,0.22689409,0.43493021,-0.00000020,0.00000029
 ,-0.00000001,0.00000008,-0.00000004,0.,0.00000003,-0.00000006,-0.00000
 003,0.00000006,0.00000019,0.00000027,-0.00000041,0.,-0.00000002,0.0000
 0004,-0.00000004,0.00000003,0.00000009,-0.00000015,-0.00000025,0.00000
 005,-0.00000040,-0.00000030,-0.00000005,0.00000005,0.00000003,-0.00000
 003,0.00000010,0.00000010,0.00000002,0.00000020,0.00000012,-0.13359040
 ,0.03389618,-0.08870878,-0.04765312,0.03712141,-0.07631110,0.03332195,
 0.00081285,0.01506906,0.00000002,0.,0.,0.14792154,0.04618013,-0.130401
 07,0.12427345,0.02364635,0.01612271,0.03037065,0.00200401,0.02205853,-
 0.03572736,-0.00000004,-0.00000003,0.00000004,-0.07183045,0.09221985,-
 0.10481764,0.09711466,-0.47373325,-0.05485488,0.03269758,-0.02560193,0
 .00972168,-0.01089554,-0.11260105,0.00000002,0.00000008,0.00000006,0.1
 4995081,-0.11891678,0.61193617\\-0.08677313,-0.15912678,0.01908579,0.0
 3090308,0.05217857,-0.00615125,0.02777552,0.05375489,-0.00524884,-0.00
 000074,-0.00000212,0.00000088,0.02809526,0.05319544,-0.00768658\\\@


 IT IS DOUBTED WHETHER A MAN EVER BRINGS HIS FACULTIES TO BEAR WITH THEIR FULL FORCE
 ON A SUBJECT UNTIL HE WRITES UPON IT.

                          -- CICERO
 Job cpu time:       0 days  0 hours  0 minutes  7.6 seconds.
 File lengths (MBytes):  RWF=     12 Int=      0 D2E=      0 Chk=      2 Scr=      1
 Normal termination of Gaussian 09 at Wed Mar 22 15:42:42 2017.
