 Entering Gaussian System, Link 0=g09
 Input=cf4+.com
 Output=cf4+.log
 Initial command:
 /mnt/software/gaussian/g09/l1.exe "/scratch/Gau-26695.inp" -scrdir="/scratch/"
 Entering Link 1 = /mnt/software/gaussian/g09/l1.exe PID=     26697.
  
 Copyright (c) 1988,1990,1992,1993,1995,1998,2003,2009,2013,
            Gaussian, Inc.  All Rights Reserved.
  
 This is part of the Gaussian(R) 09 program.  It is based on
 the Gaussian(R) 03 system (copyright 2003, Gaussian, Inc.),
 the Gaussian(R) 98 system (copyright 1998, Gaussian, Inc.),
 the Gaussian(R) 94 system (copyright 1995, Gaussian, Inc.),
 the Gaussian 92(TM) system (copyright 1992, Gaussian, Inc.),
 the Gaussian 90(TM) system (copyright 1990, Gaussian, Inc.),
 the Gaussian 88(TM) system (copyright 1988, Gaussian, Inc.),
 the Gaussian 86(TM) system (copyright 1986, Carnegie Mellon
 University), and the Gaussian 82(TM) system (copyright 1983,
 Carnegie Mellon University). Gaussian is a federally registered
 trademark of Gaussian, Inc.
  
 This software contains proprietary and confidential information,
 including trade secrets, belonging to Gaussian, Inc.
  
 This software is provided under written license and may be
 used, copied, transmitted, or stored only in accord with that
 written license.
  
 The following legend is applicable only to US Government
 contracts under FAR:
  
                    RESTRICTED RIGHTS LEGEND
  
 Use, reproduction and disclosure by the US Government is
 subject to restrictions as set forth in subparagraphs (a)
 and (c) of the Commercial Computer Software - Restricted
 Rights clause in FAR 52.227-19.
  
 Gaussian, Inc.
 340 Quinnipiac St., Bldg. 40, Wallingford CT 06492
  
  
 ---------------------------------------------------------------
 Warning -- This program may not be used in any manner that
 competes with the business of Gaussian, Inc. or will provide
 assistance to any competitor of Gaussian, Inc.  The licensee
 of this program is prohibited from giving any competitor of
 Gaussian, Inc. access to this program.  By using this program,
 the user acknowledges that Gaussian, Inc. is engaged in the
 business of creating and licensing software in the field of
 computational chemistry and represents and warrants to the
 licensee that it is not a competitor of Gaussian, Inc. and that
 it will not use this program in any manner prohibited above.
 ---------------------------------------------------------------
  

 Cite this work as:
 Gaussian 09, Revision D.01,
 M. J. Frisch, G. W. Trucks, H. B. Schlegel, G. E. Scuseria, 
 M. A. Robb, J. R. Cheeseman, G. Scalmani, V. Barone, B. Mennucci, 
 G. A. Petersson, H. Nakatsuji, M. Caricato, X. Li, H. P. Hratchian, 
 A. F. Izmaylov, J. Bloino, G. Zheng, J. L. Sonnenberg, M. Hada, 
 M. Ehara, K. Toyota, R. Fukuda, J. Hasegawa, M. Ishida, T. Nakajima, 
 Y. Honda, O. Kitao, H. Nakai, T. Vreven, J. A. Montgomery, Jr., 
 J. E. Peralta, F. Ogliaro, M. Bearpark, J. J. Heyd, E. Brothers, 
 K. N. Kudin, V. N. Staroverov, T. Keith, R. Kobayashi, J. Normand, 
 K. Raghavachari, A. Rendell, J. C. Burant, S. S. Iyengar, J. Tomasi, 
 M. Cossi, N. Rega, J. M. Millam, M. Klene, J. E. Knox, J. B. Cross, 
 V. Bakken, C. Adamo, J. Jaramillo, R. Gomperts, R. E. Stratmann, 
 O. Yazyev, A. J. Austin, R. Cammi, C. Pomelli, J. W. Ochterski, 
 R. L. Martin, K. Morokuma, V. G. Zakrzewski, G. A. Voth, 
 P. Salvador, J. J. Dannenberg, S. Dapprich, A. D. Daniels, 
 O. Farkas, J. B. Foresman, J. V. Ortiz, J. Cioslowski, 
 and D. J. Fox, Gaussian, Inc., Wallingford CT, 2013.
 
 ******************************************
 Gaussian 09:  ES64L-G09RevD.01 24-Apr-2013
                 7-Mar-2017 
 ******************************************
 %chk=cf4.chk
 %mem=1000MB
 %NProcShared=8
 Will use up to    8 processors via shared memory.
 ------------------------------
 #P UHF/6-31G* pop=full gfinput
 ------------------------------
 1/38=1/1;
 2/12=2,17=6,18=5,40=1/2;
 3/5=1,6=6,7=1,11=2,16=1,24=10,25=1,30=1,116=2/1,2,3;
 4//1;
 5/5=2,38=5/2;
 6/7=3,28=1/1;
 99/5=1,9=1/99;
 Leave Link    1 at Tue Mar  7 16:07:53 2017, MaxMem=   131072000 cpu:         0.3
 (Enter /mnt/software/gaussian/g09/l101.exe)


 Symbolic Z-matrix:
 Charge =  1 Multiplicity = 2
 6                    -0.69934   2.34967   0. 
 9                     0.60215   2.34967   0. 
 9                    -1.13316   3.29245   0.78541 
 9                    -1.13317   1.1981    0.42375 
 9                    -1.13317   2.55847  -1.20916 
 
 NAtoms=      5 NQM=        5 NQMF=       0 NMMI=      0 NMMIF=      0
                NMic=       0 NMicF=      0.
                    Isotopes and Nuclear Properties:
 (Nuclear quadrupole moments (NQMom) in fm**2, nuclear magnetic moments (NMagM)
  in nuclear magnetons)

  Atom         1           2           3           4           5
 IAtWgt=          12          19          19          19          19
 AtmWgt=  12.0000000  18.9984033  18.9984033  18.9984033  18.9984033
 NucSpn=           0           1           1           1           1
 AtZEff=   0.0000000   0.0000000   0.0000000   0.0000000   0.0000000
 NQMom=    0.0000000   0.0000000   0.0000000   0.0000000   0.0000000
 NMagM=    0.0000000   2.6288670   2.6288670   2.6288670   2.6288670
 AtZNuc=   6.0000000   9.0000000   9.0000000   9.0000000   9.0000000
 Leave Link  101 at Tue Mar  7 16:07:53 2017, MaxMem=   131072000 cpu:         1.1
 (Enter /mnt/software/gaussian/g09/l202.exe)
                          Input orientation:                          
 ---------------------------------------------------------------------
 Center     Atomic      Atomic             Coordinates (Angstroms)
 Number     Number       Type             X           Y           Z
 ---------------------------------------------------------------------
      1          6           0       -0.699340    2.349670    0.000000
      2          9           0        0.602150    2.349670    0.000000
      3          9           0       -1.133160    3.292450    0.785410
      4          9           0       -1.133170    1.198100    0.423750
      5          9           0       -1.133170    2.558470   -1.209160
 ---------------------------------------------------------------------
                    Distance matrix (angstroms):
                    1          2          3          4          5
     1  C    0.000000
     2  F    1.301490   0.000000
     3  F    1.301500   2.125324   0.000000
     4  F    1.301494   2.125327   2.125347   0.000000
     5  F    1.301489   2.125324   2.125332   2.125324   0.000000
 Stoichiometry    CF4(1+,2)
 Framework group  C1[X(CF4)]
 Deg. of freedom     9
 Full point group                 C1      NOp   1
 Largest Abelian subgroup         C1      NOp   1
 Largest concise Abelian subgroup C1      NOp   1
                         Standard orientation:                         
 ---------------------------------------------------------------------
 Center     Atomic      Atomic             Coordinates (Angstroms)
 Number     Number       Type             X           Y           Z
 ---------------------------------------------------------------------
      1          6           0        0.000002    0.000001   -0.000002
      2          9           0       -0.162831   -0.822191    0.995670
      3          9           0       -1.095611    0.055621   -0.700317
      4          9           0        0.975514   -0.418462   -0.753097
      5          9           0        0.282926    1.185031    0.457744
 ---------------------------------------------------------------------
 Rotational constants (GHZ):      5.8891326      5.8890624      5.8890475
 Leave Link  202 at Tue Mar  7 16:07:53 2017, MaxMem=   131072000 cpu:         0.0
 (Enter /mnt/software/gaussian/g09/l301.exe)
 Standard basis: 6-31G(d) (6D, 7F)
 Ernie: Thresh=  0.10000D-02 Tol=  0.10000D-05 Strict=F.
 AO basis set in the form of general basis input (Overlap normalization):
      1 0
 S   6 1.00       0.000000000000
      0.3047524880D+04  0.1834737132D-02
      0.4573695180D+03  0.1403732281D-01
      0.1039486850D+03  0.6884262226D-01
      0.2921015530D+02  0.2321844432D+00
      0.9286662960D+01  0.4679413484D+00
      0.3163926960D+01  0.3623119853D+00
 SP   3 1.00       0.000000000000
      0.7868272350D+01 -0.1193324198D+00  0.6899906659D-01
      0.1881288540D+01 -0.1608541517D+00  0.3164239610D+00
      0.5442492580D+00  0.1143456438D+01  0.7443082909D+00
 SP   1 1.00       0.000000000000
      0.1687144782D+00  0.1000000000D+01  0.1000000000D+01
 D   1 1.00       0.000000000000
      0.8000000000D+00  0.1000000000D+01
 ****
      2 0
 S   6 1.00       0.000000000000
      0.7001713090D+04  0.1819616901D-02
      0.1051366090D+04  0.1391607961D-01
      0.2392856900D+03  0.6840532453D-01
      0.6739744530D+02  0.2331857601D+00
      0.2151995730D+02  0.4712674392D+00
      0.7403101300D+01  0.3566185462D+00
 SP   3 1.00       0.000000000000
      0.2084795280D+02 -0.1085069751D+00  0.7162872424D-01
      0.4808308340D+01 -0.1464516581D+00  0.3459121027D+00
      0.1344069860D+01  0.1128688581D+01  0.7224699564D+00
 SP   1 1.00       0.000000000000
      0.3581513930D+00  0.1000000000D+01  0.1000000000D+01
 D   1 1.00       0.000000000000
      0.8000000000D+00  0.1000000000D+01
 ****
      3 0
 S   6 1.00       0.000000000000
      0.7001713090D+04  0.1819616901D-02
      0.1051366090D+04  0.1391607961D-01
      0.2392856900D+03  0.6840532453D-01
      0.6739744530D+02  0.2331857601D+00
      0.2151995730D+02  0.4712674392D+00
      0.7403101300D+01  0.3566185462D+00
 SP   3 1.00       0.000000000000
      0.2084795280D+02 -0.1085069751D+00  0.7162872424D-01
      0.4808308340D+01 -0.1464516581D+00  0.3459121027D+00
      0.1344069860D+01  0.1128688581D+01  0.7224699564D+00
 SP   1 1.00       0.000000000000
      0.3581513930D+00  0.1000000000D+01  0.1000000000D+01
 D   1 1.00       0.000000000000
      0.8000000000D+00  0.1000000000D+01
 ****
      4 0
 S   6 1.00       0.000000000000
      0.7001713090D+04  0.1819616901D-02
      0.1051366090D+04  0.1391607961D-01
      0.2392856900D+03  0.6840532453D-01
      0.6739744530D+02  0.2331857601D+00
      0.2151995730D+02  0.4712674392D+00
      0.7403101300D+01  0.3566185462D+00
 SP   3 1.00       0.000000000000
      0.2084795280D+02 -0.1085069751D+00  0.7162872424D-01
      0.4808308340D+01 -0.1464516581D+00  0.3459121027D+00
      0.1344069860D+01  0.1128688581D+01  0.7224699564D+00
 SP   1 1.00       0.000000000000
      0.3581513930D+00  0.1000000000D+01  0.1000000000D+01
 D   1 1.00       0.000000000000
      0.8000000000D+00  0.1000000000D+01
 ****
      5 0
 S   6 1.00       0.000000000000
      0.7001713090D+04  0.1819616901D-02
      0.1051366090D+04  0.1391607961D-01
      0.2392856900D+03  0.6840532453D-01
      0.6739744530D+02  0.2331857601D+00
      0.2151995730D+02  0.4712674392D+00
      0.7403101300D+01  0.3566185462D+00
 SP   3 1.00       0.000000000000
      0.2084795280D+02 -0.1085069751D+00  0.7162872424D-01
      0.4808308340D+01 -0.1464516581D+00  0.3459121027D+00
      0.1344069860D+01  0.1128688581D+01  0.7224699564D+00
 SP   1 1.00       0.000000000000
      0.3581513930D+00  0.1000000000D+01  0.1000000000D+01
 D   1 1.00       0.000000000000
      0.8000000000D+00  0.1000000000D+01
 ****

 There are    75 symmetry adapted cartesian basis functions of A   symmetry.
 There are    75 symmetry adapted basis functions of A   symmetry.
    75 basis functions,   140 primitive gaussians,    75 cartesian basis functions
    21 alpha electrons       20 beta electrons
       nuclear repulsion energy       208.8311204127 Hartrees.
 IExCor=    0 DFT=F Ex=HF Corr=None ExCW=0 ScaHFX=  1.000000
 ScaDFX=  1.000000  1.000000  1.000000  1.000000 ScalE2=  1.000000  1.000000
 IRadAn=      0 IRanWt=     -1 IRanGd=            0 ICorTp=0 IEmpDi=  4
 NAtoms=    5 NActive=    5 NUniq=    5 SFac= 1.00D+00 NAtFMM=   60 NAOKFM=F Big=F
 Integral buffers will be    131072 words long.
 Raffenetti 2 integral format.
 Two-electron integral symmetry is turned on.
 Leave Link  301 at Tue Mar  7 16:07:53 2017, MaxMem=   131072000 cpu:         0.3
 (Enter /mnt/software/gaussian/g09/l302.exe)
 NPDir=0 NMtPBC=     1 NCelOv=     1 NCel=       1 NClECP=     1 NCelD=      1
         NCelK=      1 NCelE2=     1 NClLst=     1 CellRange=     0.0.
 One-electron integrals computed using PRISM.
 NBasis=    75 RedAO= T EigKep=  1.75D-03  NBF=    75
 NBsUse=    75 1.00D-06 EigRej= -1.00D+00 NBFU=    75
 Leave Link  302 at Tue Mar  7 16:07:53 2017, MaxMem=   131072000 cpu:         1.7
 (Enter /mnt/software/gaussian/g09/l303.exe)
 DipDrv:  MaxL=1.
 Leave Link  303 at Tue Mar  7 16:07:53 2017, MaxMem=   131072000 cpu:         0.1
 (Enter /mnt/software/gaussian/g09/l401.exe)
 ExpMin= 1.69D-01 ExpMax= 7.00D+03 ExpMxC= 1.05D+03 IAcc=1 IRadAn=         1 AccDes= 0.00D+00
 Harris functional with IExCor=  205 and IRadAn=       1 diagonalized for initial guess.
 HarFok:  IExCor=  205 AccDes= 0.00D+00 IRadAn=         1 IDoV= 1 UseB2=F ITyADJ=14
 ICtDFT=  3500011 ScaDFX=  1.000000  1.000000  1.000000  1.000000
 FoFCou: FMM=F IPFlag=           0 FMFlag=      100000 FMFlg1=           0
         NFxFlg=           0 DoJE=T BraDBF=F KetDBF=T FulRan=T
         wScrn=  0.000000 ICntrl=     500 IOpCl=  0 I1Cent=   200000004 NGrid=           0
         NMat0=    1 NMatS0=      1 NMatT0=    0 NMatD0=    1 NMtDS0=    0 NMtDT0=    0
 Petite list used in FoFCou.
 Harris En= -435.091539757477    
 JPrj=0 DoOrth=F DoCkMO=F.
 Initial guess <Sx>= 0.0000 <Sy>= 0.0000 <Sz>= 0.5000 <S**2>= 0.7500 S= 0.5000
 Leave Link  401 at Tue Mar  7 16:07:54 2017, MaxMem=   131072000 cpu:         1.4
 (Enter /mnt/software/gaussian/g09/l502.exe)
 UHF open shell SCF:
 Using DIIS extrapolation, IDIIS=  1040.
 Integral symmetry usage will be decided dynamically.
 Keep R1 and R2 ints in memory in canonical form, NReq=9004197.
 IVT=       36580 IEndB=       36580 NGot=   131072000 MDV=   122910071
 LenX=   122910071 LenY=   122904005
 Requested convergence on RMS density matrix=1.00D-08 within 128 cycles.
 Requested convergence on MAX density matrix=1.00D-06.
 Requested convergence on             energy=1.00D-06.
 No special actions if energy rises.
 FoFCou: FMM=F IPFlag=           0 FMFlag=           0 FMFlg1=           0
         NFxFlg=           0 DoJE=F BraDBF=F KetDBF=F FulRan=T
         wScrn=  0.000000 ICntrl=     600 IOpCl=  0 I1Cent=           0 NGrid=           0
         NMat0=    1 NMatS0=   2850 NMatT0=    0 NMatD0=    1 NMtDS0=    0 NMtDT0=    0
 Symmetry not used in FoFCou.

 Cycle   1  Pass 1  IDiag  1:
 E= -434.925117347735    
 DIIS: error= 6.61D-02 at cycle   1 NSaved=   1.
 NSaved= 1 IEnMin= 1 EnMin= -434.925117347735     IErMin= 1 ErrMin= 6.61D-02
 ErrMax= 6.61D-02  0.00D+00 EMaxC= 1.00D-01 BMatC= 1.09D+00 BMatP= 1.09D+00
 IDIUse=3 WtCom= 3.39D-01 WtEn= 6.61D-01
 Coeff-Com:  0.100D+01
 Coeff-En:   0.100D+01
 Coeff:      0.100D+01
 Gap=     1.161 Goal=   None    Shift=    0.000
 Gap=     0.352 Goal=   None    Shift=    0.000
 GapD=    0.352 DampG=1.000 DampE=0.500 DampFc=0.5000 IDamp=-1.
 Damping current iteration by 5.00D-01
 RMSDP=4.76D-03 MaxDP=6.49D-02              OVMax= 6.69D-02

 Cycle   2  Pass 1  IDiag  1:
 E= -434.970880231343     Delta-E=       -0.045762883608 Rises=F Damp=T
 DIIS: error= 3.33D-02 at cycle   2 NSaved=   2.
 NSaved= 2 IEnMin= 2 EnMin= -434.970880231343     IErMin= 2 ErrMin= 3.33D-02
 ErrMax= 3.33D-02  0.00D+00 EMaxC= 1.00D-01 BMatC= 2.73D-01 BMatP= 1.09D+00
 IDIUse=3 WtCom= 6.67D-01 WtEn= 3.33D-01
 Coeff-Com: -0.852D+00 0.185D+01
 Coeff-En:   0.000D+00 0.100D+01
 Coeff:     -0.568D+00 0.157D+01
 Gap=     1.101 Goal=   None    Shift=    0.000
 Gap=     0.372 Goal=   None    Shift=    0.000
 RMSDP=2.83D-03 MaxDP=4.08D-02 DE=-4.58D-02 OVMax= 5.53D-02

 Cycle   3  Pass 1  IDiag  1:
 E= -435.022745570774     Delta-E=       -0.051865339432 Rises=F Damp=F
 DIIS: error= 4.11D-03 at cycle   3 NSaved=   3.
 NSaved= 3 IEnMin= 3 EnMin= -435.022745570774     IErMin= 3 ErrMin= 4.11D-03
 ErrMax= 4.11D-03  0.00D+00 EMaxC= 1.00D-01 BMatC= 1.12D-02 BMatP= 2.73D-01
 IDIUse=3 WtCom= 9.59D-01 WtEn= 4.11D-02
 Coeff-Com: -0.239D+00 0.428D+00 0.811D+00
 Coeff-En:   0.000D+00 0.000D+00 0.100D+01
 Coeff:     -0.229D+00 0.411D+00 0.819D+00
 Gap=     1.070 Goal=   None    Shift=    0.000
 Gap=     0.328 Goal=   None    Shift=    0.000
 RMSDP=6.13D-04 MaxDP=9.33D-03 DE=-5.19D-02 OVMax= 2.84D-02

 Cycle   4  Pass 1  IDiag  1:
 E= -435.026621351627     Delta-E=       -0.003875780853 Rises=F Damp=F
 DIIS: error= 4.54D-03 at cycle   4 NSaved=   4.
 NSaved= 4 IEnMin= 4 EnMin= -435.026621351627     IErMin= 3 ErrMin= 4.11D-03
 ErrMax= 4.54D-03  0.00D+00 EMaxC= 1.00D-01 BMatC= 2.11D-03 BMatP= 1.12D-02
 IDIUse=3 WtCom= 9.55D-01 WtEn= 4.54D-02
 Coeff-Com:  0.409D-01-0.887D-01-0.172D+00 0.122D+01
 Coeff-En:   0.000D+00 0.000D+00 0.000D+00 0.100D+01
 Coeff:      0.390D-01-0.847D-01-0.164D+00 0.121D+01
 Gap=     1.063 Goal=   None    Shift=    0.000
 Gap=     0.340 Goal=   None    Shift=    0.000
 RMSDP=7.08D-04 MaxDP=1.73D-02 DE=-3.88D-03 OVMax= 5.41D-02

 Cycle   5  Pass 1  IDiag  1:
 E= -435.030181979529     Delta-E=       -0.003560627903 Rises=F Damp=F
 DIIS: error= 5.24D-03 at cycle   5 NSaved=   5.
 NSaved= 5 IEnMin= 5 EnMin= -435.030181979529     IErMin= 3 ErrMin= 4.11D-03
 ErrMax= 5.24D-03  0.00D+00 EMaxC= 1.00D-01 BMatC= 3.06D-03 BMatP= 2.11D-03
 IDIUse=3 WtCom= 1.21D-01 WtEn= 8.79D-01
 Coeff-Com:  0.388D-01-0.826D-01-0.179D+00 0.113D+01 0.916D-01
 Coeff-En:   0.000D+00 0.000D+00 0.000D+00 0.000D+00 0.100D+01
 Coeff:      0.471D-02-0.100D-01-0.218D-01 0.137D+00 0.890D+00
 Gap=     1.054 Goal=   None    Shift=    0.000
 Gap=     0.346 Goal=   None    Shift=    0.000
 RMSDP=5.38D-04 MaxDP=1.03D-02 DE=-3.56D-03 OVMax= 4.08D-02

 Cycle   6  Pass 1  IDiag  1:
 E= -435.033337336219     Delta-E=       -0.003155356689 Rises=F Damp=F
 DIIS: error= 6.42D-03 at cycle   6 NSaved=   6.
 NSaved= 6 IEnMin= 6 EnMin= -435.033337336219     IErMin= 3 ErrMin= 4.11D-03
 ErrMax= 6.42D-03  0.00D+00 EMaxC= 1.00D-01 BMatC= 2.68D-03 BMatP= 2.11D-03
 IDIUse=3 WtCom= 1.21D-01 WtEn= 8.79D-01
 Coeff-Com:  0.452D-01-0.942D-01-0.216D+00 0.121D+01 0.245D+00-0.188D+00
 Coeff-En:   0.000D+00 0.000D+00 0.000D+00 0.000D+00 0.000D+00 0.100D+01
 Coeff:      0.549D-02-0.114D-01-0.263D-01 0.147D+00 0.298D-01 0.856D+00
 Gap=     1.051 Goal=   None    Shift=    0.000
 Gap=     0.356 Goal=   None    Shift=    0.000
 RMSDP=5.38D-04 MaxDP=1.23D-02 DE=-3.16D-03 OVMax= 3.96D-02

 Cycle   7  Pass 1  IDiag  1:
 E= -435.036778995007     Delta-E=       -0.003441658788 Rises=F Damp=F
 DIIS: error= 6.75D-03 at cycle   7 NSaved=   7.
 NSaved= 7 IEnMin= 7 EnMin= -435.036778995007     IErMin= 3 ErrMin= 4.11D-03
 ErrMax= 6.75D-03  0.00D+00 EMaxC= 1.00D-01 BMatC= 4.20D-03 BMatP= 2.11D-03
 IDIUse=3 WtCom= 1.21D-01 WtEn= 8.79D-01
 Coeff-Com:  0.530D-01-0.872D-01-0.188D+00-0.481D+00 0.260D+01 0.268D+01
 Coeff-Com: -0.358D+01
 Coeff-En:   0.000D+00 0.000D+00 0.000D+00 0.000D+00 0.000D+00 0.000D+00
 Coeff-En:   0.100D+01
 Coeff:      0.643D-02-0.106D-01-0.229D-01-0.584D-01 0.316D+00 0.326D+00
 Coeff:      0.444D+00
 Gap=     1.045 Goal=   None    Shift=    0.000
 Gap=     0.361 Goal=   None    Shift=    0.000
 RMSDP=3.41D-04 MaxDP=6.10D-03 DE=-3.44D-03 OVMax= 2.40D-02

 Cycle   8  Pass 1  IDiag  1:
 E= -435.039206796411     Delta-E=       -0.002427801404 Rises=F Damp=F
 DIIS: error= 7.27D-03 at cycle   8 NSaved=   8.
 NSaved= 8 IEnMin= 8 EnMin= -435.039206796411     IErMin= 3 ErrMin= 4.11D-03
 ErrMax= 7.27D-03  0.00D+00 EMaxC= 1.00D-01 BMatC= 3.91D-03 BMatP= 2.11D-03
 IDIUse=3 WtCom= 1.21D-01 WtEn= 8.79D-01
 Coeff-Com:  0.791D-01-0.131D+00-0.297D+00-0.573D-01 0.546D+01-0.142D+01
 Coeff-Com: -0.845D+01 0.581D+01
 Coeff-En:   0.000D+00 0.000D+00 0.000D+00 0.000D+00 0.000D+00 0.000D+00
 Coeff-En:   0.000D+00 0.100D+01
 Coeff:      0.960D-02-0.159D-01-0.361D-01-0.695D-02 0.663D+00-0.172D+00
 Coeff:     -0.103D+01 0.158D+01
 Gap=     1.042 Goal=   None    Shift=    0.000
 Gap=     0.366 Goal=   None    Shift=    0.000
 RMSDP=4.43D-04 MaxDP=9.06D-03 DE=-2.43D-03 OVMax= 4.08D-02

 Cycle   9  Pass 1  IDiag  1:
 E= -435.042456091794     Delta-E=       -0.003249295383 Rises=F Damp=F
 DIIS: error= 7.36D-03 at cycle   9 NSaved=   9.
 NSaved= 9 IEnMin= 9 EnMin= -435.042456091794     IErMin= 3 ErrMin= 4.11D-03
 ErrMax= 7.36D-03  0.00D+00 EMaxC= 1.00D-01 BMatC= 5.06D-03 BMatP= 2.11D-03
 IDIUse=3 WtCom= 1.21D-01 WtEn= 8.79D-01
 Large coefficients: NSaved=  9 BigCof=   11.57 CofMax=   10.00 Det=-9.19D-07
 Inversion failed.  Reducing to  8 matrices.
 Large coefficients: NSaved=  8 BigCof=   12.42 CofMax=   10.00 Det=-7.58D-07
 Inversion failed.  Reducing to  7 matrices.
 Large coefficients: NSaved=  7 BigCof=   10.93 CofMax=   10.00 Det=-7.61D-07
 Inversion failed.  Reducing to  6 matrices.
 Large coefficients: NSaved=  6 BigCof=   10.98 CofMax=   10.00 Det=-8.38D-07
 Inversion failed.  Reducing to  5 matrices.
 Coeff-Com:  0.328D+01 0.105D+01-0.744D+01 0.184D+01 0.228D+01
 Coeff-En:   0.000D+00 0.000D+00 0.000D+00 0.000D+00 0.100D+01
 Coeff:      0.398D+00 0.127D+00-0.903D+00 0.223D+00 0.115D+01
 Gap=     1.036 Goal=   None    Shift=    0.000
 Gap=     0.373 Goal=   None    Shift=    0.000
 RMSDP=5.07D-04 MaxDP=8.70D-03 DE=-3.25D-03 OVMax= 4.59D-02

 Cycle  10  Pass 1  IDiag  1:
 E= -435.046427763068     Delta-E=       -0.003971671274 Rises=F Damp=F
 DIIS: error= 7.61D-03 at cycle  10 NSaved=   6.
 NSaved= 6 IEnMin= 6 EnMin= -435.046427763068     IErMin= 1 ErrMin= 5.24D-03
 ErrMax= 7.61D-03  0.00D+00 EMaxC= 1.00D-01 BMatC= 4.93D-03 BMatP= 2.68D-03
 IDIUse=3 WtCom= 1.21D-01 WtEn= 8.79D-01
 Large coefficients: NSaved=  6 BigCof=   25.85 CofMax=   10.00 Det=-6.11D-07
 Inversion failed.  Reducing to  5 matrices.
 Coeff-Com:  0.391D+01-0.280D+01-0.991D+00 0.439D+01-0.352D+01
 Coeff-En:   0.000D+00 0.000D+00 0.000D+00 0.000D+00 0.100D+01
 Coeff:      0.475D+00-0.340D+00-0.120D+00 0.533D+00 0.452D+00
 Gap=     1.034 Goal=   None    Shift=    0.000
 Gap=     0.381 Goal=   None    Shift=    0.000
 RMSDP=2.20D-04 MaxDP=3.95D-03 DE=-3.97D-03 OVMax= 2.00D-02

 Cycle  11  Pass 1  IDiag  1:
 E= -435.048155231858     Delta-E=       -0.001727468789 Rises=F Damp=F
 DIIS: error= 7.53D-03 at cycle  11 NSaved=   6.
 NSaved= 6 IEnMin= 6 EnMin= -435.048155231858     IErMin= 1 ErrMin= 6.42D-03
 ErrMax= 7.53D-03  0.00D+00 EMaxC= 1.00D-01 BMatC= 5.12D-03 BMatP= 2.68D-03
 IDIUse=3 WtCom= 1.21D-01 WtEn= 8.79D-01
 Large coefficients: NSaved=  6 BigCof=   18.86 CofMax=   10.00 Det=-8.62D-07
 Inversion failed.  Reducing to  5 matrices.
 Large coefficients: NSaved=  5 BigCof=   19.11 CofMax=   10.00 Det=-2.23D-06
 Inversion failed.  Reducing to  4 matrices.
 Large coefficients: NSaved=  4 BigCof=   22.55 CofMax=   10.00 Det=-2.57D-06
 Inversion failed.  Reducing to  3 matrices.
 Large coefficients: NSaved=  3 BigCof=   10.03 CofMax=   10.00 Det=-1.12D-05
 Inversion failed.  Reducing to  2 matrices.
 Coeff-Com:  0.909D+01-0.809D+01
 Coeff-En:   0.000D+00 0.100D+01
 Coeff:      0.110D+01-0.103D+00
 Gap=     1.027 Goal=   None    Shift=    0.000
 Gap=     0.397 Goal=   None    Shift=    0.000
 RMSDP=5.61D-04 MaxDP=9.14D-03 DE=-1.73D-03 OVMax= 4.81D-02

 Cycle  12  Pass 1  IDiag  1:
 E= -435.052582700098     Delta-E=       -0.004427468240 Rises=F Damp=F
 DIIS: error= 7.34D-03 at cycle  12 NSaved=   3.
 NSaved= 3 IEnMin= 3 EnMin= -435.052582700098     IErMin= 3 ErrMin= 7.34D-03
 ErrMax= 7.34D-03  0.00D+00 EMaxC= 1.00D-01 BMatC= 4.40D-03 BMatP= 4.93D-03
 IDIUse=3 WtCom= 9.27D-01 WtEn= 7.34D-02
 Coeff-Com:  0.480D+01-0.706D+01 0.326D+01
 Coeff-En:   0.000D+00 0.000D+00 0.100D+01
 Coeff:      0.445D+01-0.654D+01 0.310D+01
 Gap=     1.021 Goal=   None    Shift=    0.000
 Gap=     0.423 Goal=   None    Shift=    0.000
 RMSDP=9.42D-04 MaxDP=1.77D-02 DE=-4.43D-03 OVMax= 8.52D-02

 Cycle  13  Pass 1  IDiag  1:
 E= -435.059298921361     Delta-E=       -0.006716221263 Rises=F Damp=F
 DIIS: error= 5.78D-03 at cycle  13 NSaved=   4.
 NSaved= 4 IEnMin= 4 EnMin= -435.059298921361     IErMin= 4 ErrMin= 5.78D-03
 ErrMax= 5.78D-03  0.00D+00 EMaxC= 1.00D-01 BMatC= 4.74D-03 BMatP= 4.40D-03
 IDIUse=3 WtCom= 9.42D-01 WtEn= 5.78D-02
 Large coefficients: NSaved=  4 BigCof=   30.85 CofMax=   10.00 Det=-3.54D-06
 Inversion failed.  Reducing to  3 matrices.
 Coeff-Com: -0.469D+01 0.423D+01 0.147D+01
 Coeff-En:   0.000D+00 0.000D+00 0.100D+01
 Coeff:     -0.442D+01 0.398D+01 0.144D+01
 Gap=     0.981 Goal=   None    Shift=    0.000
 Gap=     0.538 Goal=   None    Shift=    0.000
 RMSDP=2.57D-03 MaxDP=3.78D-02 DE=-6.72D-03 OVMax= 2.00D-01

 Cycle  14  Pass 1  IDiag  1:
 E= -435.064886149675     Delta-E=       -0.005587228314 Rises=F Damp=F
 DIIS: error= 5.21D-03 at cycle  14 NSaved=   4.
 NSaved= 4 IEnMin= 4 EnMin= -435.064886149675     IErMin= 4 ErrMin= 5.21D-03
 ErrMax= 5.21D-03  0.00D+00 EMaxC= 1.00D-01 BMatC= 1.38D-02 BMatP= 4.40D-03
 IDIUse=3 WtCom= 9.42D-01 WtEn= 5.78D-02
 Coeff-Com:  0.399D+01-0.468D+01 0.109D+01 0.599D+00
 Coeff-En:   0.000D+00 0.000D+00 0.000D+00 0.100D+01
 Coeff:      0.376D+01-0.441D+01 0.103D+01 0.622D+00
 Gap=     1.030 Goal=   None    Shift=    0.000
 Gap=     0.432 Goal=   None    Shift=    0.000
 RMSDP=2.04D-03 MaxDP=2.90D-02 DE=-5.59D-03 OVMax= 1.48D-01

 Cycle  15  Pass 1  IDiag  1:
 E= -435.062407130458     Delta-E=        0.002479019217 Rises=F Damp=F
 DIIS: error= 4.38D-03 at cycle  15 NSaved=   5.
 NSaved= 5 IEnMin= 4 EnMin= -435.064886149675     IErMin= 5 ErrMin= 4.38D-03
 ErrMax= 4.38D-03  0.00D+00 EMaxC= 1.00D-01 BMatC= 8.95D-03 BMatP= 4.40D-03
 IDIUse=3 WtCom= 9.42D-01 WtEn= 5.78D-02
 Rare condition: small coef for last iteration:  0.000D+00
 Coeff-Com:  0.161D+01-0.146D+01-0.702D+00 0.598D+00 0.948D+00
 Coeff-En:   0.000D+00 0.000D+00 0.000D+00 0.000D+00 0.100D+01
 Coeff:      0.161D+01-0.146D+01-0.702D+00 0.598D+00 0.948D+00
 Gap=     1.009 Goal=   None    Shift=    0.000
 Gap=     0.448 Goal=   None    Shift=    0.000
 RMSDP=7.90D-04 MaxDP=1.29D-02 DE= 2.48D-03 OVMax= 4.94D-02

 Cycle  16  Pass 1  IDiag  1:
 E= -435.066280422215     Delta-E=       -0.003873291757 Rises=F Damp=F
 DIIS: error= 2.54D-03 at cycle  16 NSaved=   6.
 NSaved= 6 IEnMin= 6 EnMin= -435.066280422215     IErMin= 6 ErrMin= 2.54D-03
 ErrMax= 2.54D-03  0.00D+00 EMaxC= 1.00D-01 BMatC= 2.86D-03 BMatP= 4.40D-03
 IDIUse=3 WtCom= 9.75D-01 WtEn= 2.54D-02
 Coeff-Com:  0.154D+00 0.846D-01-0.695D+00 0.269D+00-0.712D-01 0.126D+01
 Coeff-En:   0.000D+00 0.000D+00 0.000D+00 0.000D+00 0.000D+00 0.100D+01
 Coeff:      0.150D+00 0.825D-01-0.677D+00 0.262D+00-0.694D-01 0.125D+01
 Gap=     0.996 Goal=   None    Shift=    0.000
 Gap=     0.481 Goal=   None    Shift=    0.000
 RMSDP=7.32D-04 MaxDP=1.13D-02 DE=-3.87D-03 OVMax= 5.38D-02

 Cycle  17  Pass 1  IDiag  1:
 E= -435.067744238569     Delta-E=       -0.001463816355 Rises=F Damp=F
 DIIS: error= 2.52D-04 at cycle  17 NSaved=   7.
 NSaved= 7 IEnMin= 7 EnMin= -435.067744238569     IErMin= 7 ErrMin= 2.52D-04
 ErrMax= 2.52D-04  0.00D+00 EMaxC= 1.00D-01 BMatC= 1.14D-05 BMatP= 2.86D-03
 IDIUse=3 WtCom= 9.97D-01 WtEn= 2.52D-03
 Coeff-Com:  0.116D+00-0.222D+00 0.298D+00-0.119D+00-0.183D+00-0.237D+00
 Coeff-Com:  0.135D+01
 Coeff-En:   0.000D+00 0.000D+00 0.000D+00 0.000D+00 0.000D+00 0.000D+00
 Coeff-En:   0.100D+01
 Coeff:      0.116D+00-0.221D+00 0.298D+00-0.118D+00-0.183D+00-0.237D+00
 Coeff:      0.135D+01
 Gap=     0.996 Goal=   None    Shift=    0.000
 Gap=     0.474 Goal=   None    Shift=    0.000
 RMSDP=5.20D-05 MaxDP=8.86D-04 DE=-1.46D-03 OVMax= 3.20D-03

 Cycle  18  Pass 1  IDiag  1:
 E= -435.067755722794     Delta-E=       -0.000011484225 Rises=F Damp=F
 DIIS: error= 1.68D-04 at cycle  18 NSaved=   8.
 NSaved= 8 IEnMin= 8 EnMin= -435.067755722794     IErMin= 8 ErrMin= 1.68D-04
 ErrMax= 1.68D-04  0.00D+00 EMaxC= 1.00D-01 BMatC= 6.36D-06 BMatP= 1.14D-05
 IDIUse=3 WtCom= 9.98D-01 WtEn= 1.68D-03
 Coeff-Com:  0.936D-01-0.106D+00 0.424D-01 0.549D-02 0.628D-02-0.968D-01
 Coeff-Com: -0.235D+00 0.129D+01
 Coeff-En:   0.000D+00 0.000D+00 0.000D+00 0.000D+00 0.000D+00 0.000D+00
 Coeff-En:   0.000D+00 0.100D+01
 Coeff:      0.935D-01-0.105D+00 0.424D-01 0.548D-02 0.627D-02-0.966D-01
 Coeff:     -0.234D+00 0.129D+01
 Gap=     0.996 Goal=   None    Shift=    0.000
 Gap=     0.473 Goal=   None    Shift=    0.000
 RMSDP=2.18D-05 MaxDP=5.13D-04 DE=-1.15D-05 OVMax= 9.64D-04

 Cycle  19  Pass 1  IDiag  1:
 E= -435.067755107762     Delta-E=        0.000000615032 Rises=F Damp=F
 DIIS: error= 1.65D-04 at cycle  19 NSaved=   9.
 NSaved= 9 IEnMin= 8 EnMin= -435.067755722794     IErMin= 9 ErrMin= 1.65D-04
 ErrMax= 1.65D-04  0.00D+00 EMaxC= 1.00D-01 BMatC= 1.32D-05 BMatP= 6.36D-06
 IDIUse=3 WtCom= 9.98D-01 WtEn= 1.68D-03
 Rare condition: small coef for last iteration:  0.000D+00
 Coeff-Com:  0.594D-01-0.502D-01-0.314D-01 0.272D-01 0.991D-03 0.558D-03
 Coeff-Com: -0.872D-01-0.199D+00 0.128D+01
 Coeff-En:   0.000D+00 0.000D+00 0.000D+00 0.000D+00 0.000D+00 0.000D+00
 Coeff-En:   0.000D+00 0.000D+00 0.100D+01
 Coeff:      0.594D-01-0.502D-01-0.314D-01 0.272D-01 0.991D-03 0.558D-03
 Coeff:     -0.872D-01-0.199D+00 0.128D+01
 Gap=     0.996 Goal=   None    Shift=    0.000
 Gap=     0.474 Goal=   None    Shift=    0.000
 RMSDP=2.66D-05 MaxDP=4.16D-04 DE= 6.15D-07 OVMax= 1.59D-03

 Cycle  20  Pass 1  IDiag  1:
 E= -435.067759996789     Delta-E=       -0.000004889027 Rises=F Damp=F
 DIIS: error= 1.09D-04 at cycle  20 NSaved=  10.
 NSaved=10 IEnMin=10 EnMin= -435.067759996789     IErMin=10 ErrMin= 1.09D-04
 ErrMax= 1.09D-04  0.00D+00 EMaxC= 1.00D-01 BMatC= 2.87D-06 BMatP= 6.36D-06
 IDIUse=3 WtCom= 9.99D-01 WtEn= 1.09D-03
 Coeff-Com:  0.122D-01-0.938D-02-0.164D-01 0.695D-02 0.579D-03 0.182D-01
 Coeff-Com:  0.188D+00-0.823D+00-0.255D+00 0.188D+01
 Coeff-En:   0.000D+00 0.000D+00 0.000D+00 0.000D+00 0.000D+00 0.000D+00
 Coeff-En:   0.000D+00 0.000D+00 0.000D+00 0.100D+01
 Coeff:      0.122D-01-0.937D-02-0.163D-01 0.694D-02 0.579D-03 0.181D-01
 Coeff:      0.188D+00-0.822D+00-0.255D+00 0.188D+01
 Gap=     0.995 Goal=   None    Shift=    0.000
 Gap=     0.475 Goal=   None    Shift=    0.000
 RMSDP=2.40D-05 MaxDP=7.08D-04 DE=-4.89D-06 OVMax= 1.25D-03

 Cycle  21  Pass 1  IDiag  1:
 E= -435.067762180769     Delta-E=       -0.000002183980 Rises=F Damp=F
 DIIS: error= 6.58D-05 at cycle  21 NSaved=  11.
 NSaved=11 IEnMin=11 EnMin= -435.067762180769     IErMin=11 ErrMin= 6.58D-05
 ErrMax= 6.58D-05  0.00D+00 EMaxC= 1.00D-01 BMatC= 2.22D-07 BMatP= 2.87D-06
 IDIUse=1 WtCom= 1.00D+00 WtEn= 0.00D+00
 Coeff-Com: -0.913D-02-0.953D-02 0.527D-01-0.210D-01-0.579D-02-0.323D-01
 Coeff-Com: -0.194D-01 0.535D+00-0.633D+00-0.929D+00 0.207D+01
 Coeff:     -0.913D-02-0.953D-02 0.527D-01-0.210D-01-0.579D-02-0.323D-01
 Coeff:     -0.194D-01 0.535D+00-0.633D+00-0.929D+00 0.207D+01
 Gap=     0.995 Goal=   None    Shift=    0.000
 Gap=     0.475 Goal=   None    Shift=    0.000
 RMSDP=1.75D-05 MaxDP=7.02D-04 DE=-2.18D-06 OVMax= 1.19D-03

 Cycle  22  Pass 1  IDiag  1:
 E= -435.067762916324     Delta-E=       -0.000000735555 Rises=F Damp=F
 DIIS: error= 2.82D-05 at cycle  22 NSaved=  12.
 NSaved=12 IEnMin=12 EnMin= -435.067762916324     IErMin=12 ErrMin= 2.82D-05
 ErrMax= 2.82D-05  0.00D+00 EMaxC= 1.00D-01 BMatC= 5.76D-08 BMatP= 2.22D-07
 IDIUse=1 WtCom= 1.00D+00 WtEn= 0.00D+00
 Coeff-Com:  0.105D-01-0.977D-02-0.119D-02 0.760D-03-0.135D-01 0.196D-01
 Coeff-Com: -0.450D-01 0.958D-01 0.263D+00-0.502D+00-0.277D+00 0.146D+01
 Coeff:      0.105D-01-0.977D-02-0.119D-02 0.760D-03-0.135D-01 0.196D-01
 Coeff:     -0.450D-01 0.958D-01 0.263D+00-0.502D+00-0.277D+00 0.146D+01
 Gap=     0.995 Goal=   None    Shift=    0.000
 Gap=     0.475 Goal=   None    Shift=    0.000
 RMSDP=8.53D-06 MaxDP=3.31D-04 DE=-7.36D-07 OVMax= 5.63D-04

 Cycle  23  Pass 1  IDiag  1:
 E= -435.067763054371     Delta-E=       -0.000000138047 Rises=F Damp=F
 DIIS: error= 1.13D-05 at cycle  23 NSaved=  13.
 NSaved=13 IEnMin=13 EnMin= -435.067763054371     IErMin=13 ErrMin= 1.13D-05
 ErrMax= 1.13D-05  0.00D+00 EMaxC= 1.00D-01 BMatC= 4.37D-08 BMatP= 5.76D-08
 IDIUse=1 WtCom= 1.00D+00 WtEn= 0.00D+00
 Coeff-Com: -0.915D-03 0.180D-02-0.232D-02 0.190D-02 0.659D-02-0.137D-01
 Coeff-Com:  0.257D-01-0.710D-01-0.521D-01 0.295D+00-0.207D+00-0.555D+00
 Coeff-Com:  0.157D+01
 Coeff:     -0.915D-03 0.180D-02-0.232D-02 0.190D-02 0.659D-02-0.137D-01
 Coeff:      0.257D-01-0.710D-01-0.521D-01 0.295D+00-0.207D+00-0.555D+00
 Coeff:      0.157D+01
 Gap=     0.995 Goal=   None    Shift=    0.000
 Gap=     0.475 Goal=   None    Shift=    0.000
 RMSDP=3.68D-06 MaxDP=1.29D-04 DE=-1.38D-07 OVMax= 2.10D-04

 Cycle  24  Pass 1  IDiag  1:
 E= -435.067763086161     Delta-E=       -0.000000031790 Rises=F Damp=F
 DIIS: error= 2.48D-06 at cycle  24 NSaved=  14.
 NSaved=14 IEnMin=14 EnMin= -435.067763086161     IErMin=14 ErrMin= 2.48D-06
 ErrMax= 2.48D-06  0.00D+00 EMaxC= 1.00D-01 BMatC= 2.14D-09 BMatP= 4.37D-08
 IDIUse=1 WtCom= 1.00D+00 WtEn= 0.00D+00
 Coeff-Com: -0.130D-02 0.676D-03 0.125D-02-0.868D-03 0.105D-03 0.121D-02
 Coeff-Com: -0.206D-02 0.174D-01-0.358D-01-0.311D-01 0.150D+00-0.736D-01
 Coeff-Com: -0.562D+00 0.154D+01
 Coeff:     -0.130D-02 0.676D-03 0.125D-02-0.868D-03 0.105D-03 0.121D-02
 Coeff:     -0.206D-02 0.174D-01-0.358D-01-0.311D-01 0.150D+00-0.736D-01
 Coeff:     -0.562D+00 0.154D+01
 Gap=     0.995 Goal=   None    Shift=    0.000
 Gap=     0.475 Goal=   None    Shift=    0.000
 RMSDP=1.15D-06 MaxDP=3.06D-05 DE=-3.18D-08 OVMax= 6.35D-05

 Cycle  25  Pass 1  IDiag  1:
 E= -435.067763088352     Delta-E=       -0.000000002191 Rises=F Damp=F
 DIIS: error= 2.05D-06 at cycle  25 NSaved=  15.
 NSaved=15 IEnMin=15 EnMin= -435.067763088352     IErMin=15 ErrMin= 2.05D-06
 ErrMax= 2.05D-06  0.00D+00 EMaxC= 1.00D-01 BMatC= 1.96D-09 BMatP= 2.14D-09
 IDIUse=1 WtCom= 1.00D+00 WtEn= 0.00D+00
 Coeff-Com: -0.759D-04 0.433D-03-0.877D-03 0.810D-04-0.130D-02 0.357D-02
 Coeff-Com: -0.369D-02-0.365D-02 0.348D-01-0.315D-01-0.392D-01 0.118D+00
 Coeff-Com: -0.400D-01-0.606D+00 0.157D+01
 Coeff:     -0.759D-04 0.433D-03-0.877D-03 0.810D-04-0.130D-02 0.357D-02
 Coeff:     -0.369D-02-0.365D-02 0.348D-01-0.315D-01-0.392D-01 0.118D+00
 Coeff:     -0.400D-01-0.606D+00 0.157D+01
 Gap=     0.995 Goal=   None    Shift=    0.000
 Gap=     0.475 Goal=   None    Shift=    0.000
 RMSDP=4.16D-07 MaxDP=1.12D-05 DE=-2.19D-09 OVMax= 1.81D-05

 Cycle  26  Pass 1  IDiag  1:
 E= -435.067763089298     Delta-E=       -0.000000000945 Rises=F Damp=F
 DIIS: error= 1.50D-06 at cycle  26 NSaved=  16.
 NSaved=16 IEnMin=16 EnMin= -435.067763089298     IErMin=16 ErrMin= 1.50D-06
 ErrMax= 1.50D-06  0.00D+00 EMaxC= 1.00D-01 BMatC= 4.68D-10 BMatP= 1.96D-09
 IDIUse=1 WtCom= 1.00D+00 WtEn= 0.00D+00
 Coeff-Com: -0.675D-03 0.785D-03-0.237D-03 0.571D-04 0.584D-03-0.718D-03
 Coeff-Com:  0.957D-03-0.276D-02-0.478D-02 0.159D-01-0.117D-01-0.126D-01
 Coeff-Com:  0.504D-01 0.275D-01-0.400D+00 0.134D+01
 Coeff:     -0.675D-03 0.785D-03-0.237D-03 0.571D-04 0.584D-03-0.718D-03
 Coeff:      0.957D-03-0.276D-02-0.478D-02 0.159D-01-0.117D-01-0.126D-01
 Coeff:      0.504D-01 0.275D-01-0.400D+00 0.134D+01
 Gap=     0.995 Goal=   None    Shift=    0.000
 Gap=     0.475 Goal=   None    Shift=    0.000
 RMSDP=1.79D-07 MaxDP=5.78D-06 DE=-9.45D-10 OVMax= 1.26D-05

 Cycle  27  Pass 1  IDiag  1:
 E= -435.067763089629     Delta-E=       -0.000000000331 Rises=F Damp=F
 DIIS: error= 1.44D-06 at cycle  27 NSaved=  17.
 NSaved=17 IEnMin=17 EnMin= -435.067763089629     IErMin=17 ErrMin= 1.44D-06
 ErrMax= 1.44D-06  0.00D+00 EMaxC= 1.00D-01 BMatC= 3.60D-10 BMatP= 4.68D-10
 IDIUse=1 WtCom= 1.00D+00 WtEn= 0.00D+00
 Coeff-Com: -0.262D-04 0.130D-03-0.272D-03 0.764D-04 0.148D-03 0.135D-03
 Coeff-Com: -0.153D-03-0.207D-02 0.241D-02 0.484D-02-0.880D-02 0.188D-03
 Coeff-Com:  0.814D-02 0.818D-02-0.527D-01 0.681D-02 0.103D+01
 Coeff:     -0.262D-04 0.130D-03-0.272D-03 0.764D-04 0.148D-03 0.135D-03
 Coeff:     -0.153D-03-0.207D-02 0.241D-02 0.484D-02-0.880D-02 0.188D-03
 Coeff:      0.814D-02 0.818D-02-0.527D-01 0.681D-02 0.103D+01
 Gap=     0.995 Goal=   None    Shift=    0.000
 Gap=     0.475 Goal=   None    Shift=    0.000
 RMSDP=1.91D-07 MaxDP=4.79D-06 DE=-3.31D-10 OVMax= 1.01D-05

 Cycle  28  Pass 1  IDiag  1:
 E= -435.067763089889     Delta-E=       -0.000000000260 Rises=F Damp=F
 DIIS: error= 1.41D-06 at cycle  28 NSaved=  18.
 NSaved=18 IEnMin=18 EnMin= -435.067763089889     IErMin=18 ErrMin= 1.41D-06
 ErrMax= 1.41D-06  0.00D+00 EMaxC= 1.00D-01 BMatC= 1.58D-10 BMatP= 3.60D-10
 IDIUse=1 WtCom= 1.00D+00 WtEn= 0.00D+00
 Coeff-Com: -0.591D-04 0.105D-03-0.144D-03 0.128D-04-0.182D-03 0.440D-03
 Coeff-Com: -0.255D-03-0.824D-03 0.305D-02-0.257D-02-0.248D-02 0.112D-01
 Coeff-Com: -0.178D-01-0.289D-01 0.161D+00-0.345D+00-0.921D-01 0.131D+01
 Coeff:     -0.591D-04 0.105D-03-0.144D-03 0.128D-04-0.182D-03 0.440D-03
 Coeff:     -0.255D-03-0.824D-03 0.305D-02-0.257D-02-0.248D-02 0.112D-01
 Coeff:     -0.178D-01-0.289D-01 0.161D+00-0.345D+00-0.921D-01 0.131D+01
 Gap=     0.995 Goal=   None    Shift=    0.000
 Gap=     0.475 Goal=   None    Shift=    0.000
 RMSDP=1.76D-07 MaxDP=5.67D-06 DE=-2.60D-10 OVMax= 1.31D-05

 Cycle  29  Pass 1  IDiag  1:
 E= -435.067763090148     Delta-E=       -0.000000000259 Rises=F Damp=F
 DIIS: error= 1.43D-06 at cycle  29 NSaved=  19.
 NSaved=19 IEnMin=19 EnMin= -435.067763090148     IErMin=18 ErrMin= 1.41D-06
 ErrMax= 1.43D-06  0.00D+00 EMaxC= 1.00D-01 BMatC= 1.90D-10 BMatP= 1.58D-10
 IDIUse=1 WtCom= 1.00D+00 WtEn= 0.00D+00
 Coeff-Com: -0.304D-04 0.635D-04-0.125D-03 0.498D-05-0.229D-03 0.480D-03
 Coeff-Com: -0.255D-03-0.767D-03 0.306D-02-0.329D-02-0.102D-02 0.107D-01
 Coeff-Com: -0.224D-01-0.244D-01 0.182D+00-0.453D+00 0.114D-01 0.171D+01
 Coeff-Com: -0.415D+00
 Coeff:     -0.304D-04 0.635D-04-0.125D-03 0.498D-05-0.229D-03 0.480D-03
 Coeff:     -0.255D-03-0.767D-03 0.306D-02-0.329D-02-0.102D-02 0.107D-01
 Coeff:     -0.224D-01-0.244D-01 0.182D+00-0.453D+00 0.114D-01 0.171D+01
 Coeff:     -0.415D+00
 Gap=     0.995 Goal=   None    Shift=    0.000
 Gap=     0.475 Goal=   None    Shift=    0.000
 RMSDP=5.71D-08 MaxDP=2.10D-06 DE=-2.59D-10 OVMax= 4.71D-06

 Cycle  30  Pass 1  IDiag  1:
 E= -435.067763090047     Delta-E=        0.000000000101 Rises=F Damp=F
 DIIS: error= 1.43D-06 at cycle  30 NSaved=  20.
 NSaved=20 IEnMin=19 EnMin= -435.067763090148     IErMin=18 ErrMin= 1.41D-06
 ErrMax= 1.43D-06  0.00D+00 EMaxC= 1.00D-01 BMatC= 1.92D-10 BMatP= 1.58D-10
 IDIUse=1 WtCom= 1.00D+00 WtEn= 0.00D+00
 Large coefficients: NSaved= 20 BigCof=    0.00 CofMax=   10.00 Det=-1.14D-15
 Inversion failed.  Reducing to 19 matrices.
 Large coefficients: NSaved= 19 BigCof=    0.00 CofMax=   10.00 Det=-1.25D-15
 Inversion failed.  Reducing to 18 matrices.
 Large coefficients: NSaved= 18 BigCof=    0.00 CofMax=   10.00 Det=-1.38D-15
 Inversion failed.  Reducing to 17 matrices.
 Large coefficients: NSaved= 17 BigCof=    0.00 CofMax=   10.00 Det=-1.76D-15
 Inversion failed.  Reducing to 16 matrices.
 Large coefficients: NSaved= 16 BigCof=    0.00 CofMax=   10.00 Det=-1.86D-15
 Inversion failed.  Reducing to 15 matrices.
 Coeff-Com:  0.316D-04-0.127D-03 0.219D-03 0.672D-03-0.849D-03-0.181D-02
 Coeff-Com:  0.679D-02-0.694D-02-0.136D-01 0.686D-01-0.172D+00-0.213D+00
 Coeff-Com:  0.632D+00-0.737D+01 0.807D+01
 Coeff:      0.316D-04-0.127D-03 0.219D-03 0.672D-03-0.849D-03-0.181D-02
 Coeff:      0.679D-02-0.694D-02-0.136D-01 0.686D-01-0.172D+00-0.213D+00
 Coeff:      0.632D+00-0.737D+01 0.807D+01
 Gap=     0.995 Goal=   None    Shift=    0.000
 Gap=     0.475 Goal=   None    Shift=    0.000
 RMSDP=3.08D-07 MaxDP=1.10D-05 DE= 1.01D-10 OVMax= 2.49D-05

 Cycle  31  Pass 1  IDiag  1:
 E= -435.067763089546     Delta-E=        0.000000000501 Rises=F Damp=F
 DIIS: error= 1.41D-06 at cycle  31 NSaved=  16.
 NSaved=16 IEnMin=14 EnMin= -435.067763090148     IErMin=16 ErrMin= 1.41D-06
 ErrMax= 1.41D-06  0.00D+00 EMaxC= 1.00D-01 BMatC= 1.57D-10 BMatP= 1.58D-10
 IDIUse=1 WtCom= 1.00D+00 WtEn= 0.00D+00
 Large coefficients: NSaved= 16 BigCof=    0.00 CofMax=   10.00 Det=-1.49D-15
 Inversion failed.  Reducing to 15 matrices.
 Coeff-Com:  0.144D-04 0.638D-03-0.127D-02-0.113D-02 0.180D-02 0.455D-02
 Coeff-Com: -0.789D-02-0.912D-02 0.200D-01 0.174D+00-0.374D+00-0.817D+00
 Coeff-Com: -0.800D+01 0.702D+01 0.299D+01
 Coeff:      0.144D-04 0.638D-03-0.127D-02-0.113D-02 0.180D-02 0.455D-02
 Coeff:     -0.789D-02-0.912D-02 0.200D-01 0.174D+00-0.374D+00-0.817D+00
 Coeff:     -0.800D+01 0.702D+01 0.299D+01
 Gap=     0.995 Goal=   None    Shift=    0.000
 Gap=     0.475 Goal=   None    Shift=    0.000
 RMSDP=8.54D-07 MaxDP=3.15D-05 DE= 5.01D-10 OVMax= 7.06D-05

 Cycle  32  Pass 1  IDiag  1:
 E= -435.067763088068     Delta-E=        0.000000001478 Rises=F Damp=F
 DIIS: error= 1.41D-06 at cycle  32 NSaved=  16.
 NSaved=16 IEnMin=13 EnMin= -435.067763090148     IErMin=16 ErrMin= 1.41D-06
 ErrMax= 1.41D-06  0.00D+00 EMaxC= 1.00D-01 BMatC= 1.56D-10 BMatP= 1.57D-10
 IDIUse=1 WtCom= 1.00D+00 WtEn= 0.00D+00
 Large coefficients: NSaved= 16 BigCof=    0.00 CofMax=   10.00 Det=-2.34D-15
 Inversion failed.  Reducing to 15 matrices.
 Large coefficients: NSaved= 15 BigCof=   11.89 CofMax=   10.00 Det=-2.57D-15
 Inversion failed.  Reducing to 14 matrices.
 Large coefficients: NSaved= 14 BigCof=   11.30 CofMax=   10.00 Det=-2.55D-15
 Inversion failed.  Reducing to 13 matrices.
 Large coefficients: NSaved= 13 BigCof=   11.31 CofMax=   10.00 Det=-2.66D-15
 Inversion failed.  Reducing to 12 matrices.
 Coeff-Com:  0.125D-02-0.127D-02-0.359D-02 0.195D-01-0.398D-01-0.616D-01
 Coeff-Com:  0.461D+00-0.177D+01-0.110D+01-0.150D+00-0.397D+01 0.761D+01
 Coeff:      0.125D-02-0.127D-02-0.359D-02 0.195D-01-0.398D-01-0.616D-01
 Coeff:      0.461D+00-0.177D+01-0.110D+01-0.150D+00-0.397D+01 0.761D+01
 Gap=     0.995 Goal=   None    Shift=    0.000
 Gap=     0.475 Goal=   None    Shift=    0.000
 RMSDP=6.29D-06 MaxDP=2.32D-04 DE= 1.48D-09 OVMax= 5.20D-04

 Cycle  33  Pass 1  IDiag  1:
 E= -435.067763077315     Delta-E=        0.000000010754 Rises=F Damp=F
 DIIS: error= 1.38D-06 at cycle  33 NSaved=  13.
 NSaved=13 IEnMin= 9 EnMin= -435.067763090148     IErMin=13 ErrMin= 1.38D-06
 ErrMax= 1.38D-06  0.00D+00 EMaxC= 1.00D-01 BMatC= 1.51D-10 BMatP= 1.56D-10
 IDIUse=1 WtCom= 1.00D+00 WtEn= 0.00D+00
 Large coefficients: NSaved= 13 BigCof=   28.32 CofMax=   10.00 Det=-3.02D-15
 Inversion failed.  Reducing to 12 matrices.
 Large coefficients: NSaved= 12 BigCof=   28.51 CofMax=   10.00 Det=-3.05D-15
 Inversion failed.  Reducing to 11 matrices.
 Large coefficients: NSaved= 11 BigCof=   26.89 CofMax=   10.00 Det=-3.19D-15
 Inversion failed.  Reducing to 10 matrices.
 Large coefficients: NSaved= 10 BigCof=   26.90 CofMax=   10.00 Det=-3.24D-15
 Inversion failed.  Reducing to  9 matrices.
 Large coefficients: NSaved=  9 BigCof=   25.95 CofMax=   10.00 Det=-3.30D-15
 Inversion failed.  Reducing to  8 matrices.
 Large coefficients: NSaved=  8 BigCof=   25.16 CofMax=   10.00 Det=-3.86D-15
 Inversion failed.  Reducing to  7 matrices.
 Large coefficients: NSaved=  7 BigCof=   24.76 CofMax=   10.00 Det=-4.17D-15
 Inversion failed.  Reducing to  6 matrices.
 Large coefficients: NSaved=  6 BigCof=   20.65 CofMax=   10.00 Det=-4.50D-15
 Inversion failed.  Reducing to  5 matrices.
 Large coefficients: NSaved=  5 BigCof=   10.51 CofMax=   10.00 Det=-5.37D-15
 Inversion failed.  Reducing to  4 matrices.
 Coeff-Com: -0.329D+01 0.330D+01-0.258D+01 0.357D+01
 Coeff:     -0.329D+01 0.330D+01-0.258D+01 0.357D+01
 Gap=     0.995 Goal=   None    Shift=    0.000
 Gap=     0.475 Goal=   None    Shift=    0.000
 RMSDP=1.62D-05 MaxDP=5.99D-04 DE= 1.08D-08 OVMax= 1.34D-03

 Cycle  34  Pass 1  IDiag  1:
 E= -435.067763050585     Delta-E=        0.000000026730 Rises=F Damp=F
 DIIS: error= 1.30D-06 at cycle  34 NSaved=   5.
 NSaved= 5 IEnMin= 1 EnMin= -435.067763090148     IErMin= 5 ErrMin= 1.30D-06
 ErrMax= 1.30D-06  0.00D+00 EMaxC= 1.00D-01 BMatC= 1.40D-10 BMatP= 1.51D-10
 IDIUse=1 WtCom= 1.00D+00 WtEn= 0.00D+00
 Coeff-Com:  0.424D+01-0.421D+01-0.940D+00 0.411D-01 0.187D+01
 Coeff:      0.424D+01-0.421D+01-0.940D+00 0.411D-01 0.187D+01
 Gap=     0.995 Goal=   None    Shift=    0.000
 Gap=     0.475 Goal=   None    Shift=    0.000
 RMSDP=1.95D-05 MaxDP=7.17D-04 DE= 2.67D-08 OVMax= 1.61D-03

 Cycle  35  Pass 1  IDiag  1:
 E= -435.067763020439     Delta-E=        0.000000030146 Rises=F Damp=F
 DIIS: error= 1.20D-06 at cycle  35 NSaved=   6.
 NSaved= 6 IEnMin= 1 EnMin= -435.067763090148     IErMin= 6 ErrMin= 1.20D-06
 ErrMax= 1.20D-06  0.00D+00 EMaxC= 1.00D-01 BMatC= 1.34D-10 BMatP= 1.40D-10
 IDIUse=1 WtCom= 1.00D+00 WtEn= 0.00D+00
 Coeff-Com: -0.314D+00 0.178D+00 0.266D+00-0.686D+00 0.711D+00 0.845D+00
 Coeff:     -0.314D+00 0.178D+00 0.266D+00-0.686D+00 0.711D+00 0.845D+00
 Gap=     0.995 Goal=   None    Shift=    0.000
 Gap=     0.475 Goal=   None    Shift=    0.000
 RMSDP=5.27D-06 MaxDP=1.94D-04 DE= 3.01D-08 OVMax= 4.36D-04

 Cycle  36  Pass 1  IDiag  1:
 E= -435.067763012640     Delta-E=        0.000000007798 Rises=F Damp=F
 DIIS: error= 1.18D-06 at cycle  36 NSaved=   7.
 NSaved= 7 IEnMin= 1 EnMin= -435.067763090148     IErMin= 7 ErrMin= 1.18D-06
 ErrMax= 1.18D-06  0.00D+00 EMaxC= 1.00D-01 BMatC= 1.22D-10 BMatP= 1.34D-10
 IDIUse=1 WtCom= 1.00D+00 WtEn= 0.00D+00
 Coeff-Com: -0.575D+01 0.548D+01-0.341D+01 0.380D+01-0.338D+01-0.516D+01
 Coeff-Com:  0.942D+01
 Coeff:     -0.575D+01 0.548D+01-0.341D+01 0.380D+01-0.338D+01-0.516D+01
 Coeff:      0.942D+01
 Gap=     0.995 Goal=   None    Shift=    0.000
 Gap=     0.475 Goal=   None    Shift=    0.000
 RMSDP=1.29D-04 MaxDP=4.73D-03 DE= 7.80D-09 OVMax= 1.07D-02

 Cycle  37  Pass 1  IDiag  1:
 E= -435.067762868233     Delta-E=        0.000000144408 Rises=F Damp=F
 DIIS: error= 4.04D-06 at cycle  37 NSaved=   8.
 NSaved= 8 IEnMin= 1 EnMin= -435.067763090148     IErMin= 7 ErrMin= 1.18D-06
 ErrMax= 4.04D-06  0.00D+00 EMaxC= 1.00D-01 BMatC= 5.30D-09 BMatP= 1.22D-10
 IDIUse=1 WtCom= 1.00D+00 WtEn= 0.00D+00
 Large coefficients: NSaved=  8 BigCof=   12.44 CofMax=   10.00 Det=-4.84D-15
 Inversion failed.  Reducing to  7 matrices.
 Coeff-Com: -0.152D+01 0.133D+01 0.108D+01-0.281D+01-0.222D+01 0.524D+01
 Coeff-Com: -0.107D+00
 Coeff:     -0.152D+01 0.133D+01 0.108D+01-0.281D+01-0.222D+01 0.524D+01
 Coeff:     -0.107D+00
 Gap=     0.995 Goal=   None    Shift=    0.000
 Gap=     0.475 Goal=   None    Shift=    0.000
 RMSDP=1.51D-05 MaxDP=5.48D-04 DE= 1.44D-07 OVMax= 1.25D-03

 Cycle  38  Pass 1  IDiag  1:
 E= -435.067762880349     Delta-E=       -0.000000012116 Rises=F Damp=F
 DIIS: error= 3.67D-06 at cycle  38 NSaved=   8.
 NSaved= 8 IEnMin= 1 EnMin= -435.067763090148     IErMin= 6 ErrMin= 1.18D-06
 ErrMax= 3.67D-06  0.00D+00 EMaxC= 1.00D-01 BMatC= 4.43D-09 BMatP= 1.22D-10
 IDIUse=1 WtCom= 1.00D+00 WtEn= 0.00D+00
 Coeff-Com:  0.755D+00-0.904D+00 0.108D+01-0.298D+01-0.200D+01 0.521D+01
 Coeff-Com:  0.395D+00-0.553D+00
 Coeff:      0.755D+00-0.904D+00 0.108D+01-0.298D+01-0.200D+01 0.521D+01
 Coeff:      0.395D+00-0.553D+00
 Gap=     0.995 Goal=   None    Shift=    0.000
 Gap=     0.475 Goal=   None    Shift=    0.000
 RMSDP=1.41D-06 MaxDP=5.02D-05 DE=-1.21D-08 OVMax= 1.16D-04

 Cycle  39  Pass 1  IDiag  1:
 E= -435.067762879318     Delta-E=        0.000000001031 Rises=F Damp=F
 DIIS: error= 3.51D-06 at cycle  39 NSaved=   9.
 NSaved= 9 IEnMin= 1 EnMin= -435.067763090148     IErMin= 6 ErrMin= 1.18D-06
 ErrMax= 3.51D-06  0.00D+00 EMaxC= 1.00D-01 BMatC= 4.07D-09 BMatP= 1.22D-10
 IDIUse=1 WtCom= 1.00D+00 WtEn= 0.00D+00
 Large coefficients: NSaved=  9 BigCof=   23.49 CofMax=   10.00 Det=-4.34D-15
 Inversion failed.  Reducing to  8 matrices.
 Large coefficients: NSaved=  8 BigCof=   20.31 CofMax=   10.00 Det=-4.86D-15
 Inversion failed.  Reducing to  7 matrices.
 Large coefficients: NSaved=  7 BigCof=   25.25 CofMax=   10.00 Det=-4.86D-15
 Inversion failed.  Reducing to  6 matrices.
 Large coefficients: NSaved=  6 BigCof=   26.29 CofMax=   10.00 Det=-5.37D-15
 Inversion failed.  Reducing to  5 matrices.
 Large coefficients: NSaved=  5 BigCof=   26.20 CofMax=   10.00 Det=-5.38D-15
 Inversion failed.  Reducing to  4 matrices.
 Large coefficients: NSaved=  4 BigCof=   26.15 CofMax=   10.00 Det=-1.30D-14
 Inversion failed.  Reducing to  3 matrices.
 Large coefficients: NSaved=  3 BigCof=   21.86 CofMax=   10.00 Det=-2.98D-13
 Inversion failed.  Reducing to  2 matrices.
 Large coefficients: NSaved=  2 BigCof=   24.11 CofMax=   10.00 Det=-7.51D-12
 Coeff-Com: -0.231D+02 0.241D+02
 Coeff:     -0.231D+02 0.241D+02
 Gap=     0.995 Goal=   None    Shift=    0.000
 Gap=     0.475 Goal=   None    Shift=    0.000
 RMSDP=3.25D-05 MaxDP=1.16D-03 DE= 1.03D-09 OVMax= 2.69D-03

 Cycle  40  Pass 1  IDiag  1:
 E= -435.067762857155     Delta-E=        0.000000022162 Rises=F Damp=F
 DIIS: error= 4.72D-07 at cycle  40 NSaved=   3.
 NSaved= 3 IEnMin= 1 EnMin= -435.067762880349     IErMin= 3 ErrMin= 4.72D-07
 ErrMax= 4.72D-07  0.00D+00 EMaxC= 1.00D-01 BMatC= 4.44D-11 BMatP= 4.07D-09
 IDIUse=1 WtCom= 1.00D+00 WtEn= 0.00D+00
 Coeff-Com: -0.763D+01 0.793D+01 0.707D+00
 Coeff:     -0.763D+01 0.793D+01 0.707D+00
 Gap=     0.995 Goal=   None    Shift=    0.000
 Gap=     0.475 Goal=   None    Shift=    0.000
 RMSDP=1.19D-06 MaxDP=4.22D-05 DE= 2.22D-08 OVMax= 9.83D-05

 Cycle  41  Pass 1  IDiag  1:
 E= -435.067762856411     Delta-E=        0.000000000744 Rises=F Damp=F
 DIIS: error= 4.76D-07 at cycle  41 NSaved=   4.
 NSaved= 4 IEnMin= 1 EnMin= -435.067762880349     IErMin= 3 ErrMin= 4.72D-07
 ErrMax= 4.76D-07  0.00D+00 EMaxC= 1.00D-01 BMatC= 2.51D-11 BMatP= 4.44D-11
 IDIUse=1 WtCom= 1.00D+00 WtEn= 0.00D+00
 Large coefficients: NSaved=  4 BigCof=   14.76 CofMax=   10.00 Det=-1.38D-14
 Inversion failed.  Reducing to  3 matrices.
 Coeff-Com: -0.249D-01 0.934D-02 0.102D+01
 Coeff:     -0.249D-01 0.934D-02 0.102D+01
 Gap=     0.995 Goal=   None    Shift=    0.000
 Gap=     0.475 Goal=   None    Shift=    0.000
 RMSDP=8.25D-07 MaxDP=2.93D-05 DE= 7.44D-10 OVMax= 6.83D-05

 Cycle  42  Pass 1  IDiag  1:
 E= -435.067762855900     Delta-E=        0.000000000512 Rises=F Damp=F
 DIIS: error= 4.84D-07 at cycle  42 NSaved=   4.
 NSaved= 4 IEnMin= 1 EnMin= -435.067762880349     IErMin= 2 ErrMin= 4.72D-07
 ErrMax= 4.84D-07  0.00D+00 EMaxC= 1.00D-01 BMatC= 2.11D-11 BMatP= 2.51D-11
 IDIUse=1 WtCom= 1.00D+00 WtEn= 0.00D+00
 Coeff-Com:  0.383D-01-0.292D+00-0.129D+01 0.255D+01
 Coeff:      0.383D-01-0.292D+00-0.129D+01 0.255D+01
 Gap=     0.995 Goal=   None    Shift=    0.000
 Gap=     0.475 Goal=   None    Shift=    0.000
 RMSDP=2.47D-07 MaxDP=8.69D-06 DE= 5.12D-10 OVMax= 2.04D-05

 Cycle  43  Pass 1  IDiag  1:
 E= -435.067762855746     Delta-E=        0.000000000154 Rises=F Damp=F
 DIIS: error= 5.06D-07 at cycle  43 NSaved=   5.
 NSaved= 5 IEnMin= 1 EnMin= -435.067762880349     IErMin= 2 ErrMin= 4.72D-07
 ErrMax= 5.06D-07  0.00D+00 EMaxC= 1.00D-01 BMatC= 2.01D-11 BMatP= 2.11D-11
 IDIUse=1 WtCom= 1.00D+00 WtEn= 0.00D+00
 Coeff-Com:  0.279D-01-0.204D+00-0.885D+00 0.165D+01 0.414D+00
 Coeff:      0.279D-01-0.204D+00-0.885D+00 0.165D+01 0.414D+00
 Gap=     0.995 Goal=   None    Shift=    0.000
 Gap=     0.475 Goal=   None    Shift=    0.000
 RMSDP=4.18D-08 MaxDP=1.48D-06 DE= 1.54D-10 OVMax= 3.45D-06

 Cycle  44  Pass 1  IDiag  1:
 E= -435.067762855773     Delta-E=       -0.000000000028 Rises=F Damp=F
 DIIS: error= 5.07D-07 at cycle  44 NSaved=   6.
 NSaved= 6 IEnMin= 1 EnMin= -435.067762880349     IErMin= 2 ErrMin= 4.72D-07
 ErrMax= 5.07D-07  0.00D+00 EMaxC= 1.00D-01 BMatC= 2.01D-11 BMatP= 2.01D-11
 IDIUse=1 WtCom= 1.00D+00 WtEn= 0.00D+00
 Coeff-Com:  0.654D-01-0.389D+00-0.204D+01 0.356D+01 0.629D+01-0.649D+01
 Coeff:      0.654D-01-0.389D+00-0.204D+01 0.356D+01 0.629D+01-0.649D+01
 Gap=     0.995 Goal=   None    Shift=    0.000
 Gap=     0.475 Goal=   None    Shift=    0.000
 RMSDP=1.00D-07 MaxDP=3.53D-06 DE=-2.75D-11 OVMax= 8.26D-06

 Cycle  45  Pass 1  IDiag  1:
 E= -435.067762855710     Delta-E=        0.000000000064 Rises=F Damp=F
 DIIS: error= 5.04D-07 at cycle  45 NSaved=   7.
 NSaved= 7 IEnMin= 1 EnMin= -435.067762880349     IErMin= 2 ErrMin= 4.72D-07
 ErrMax= 5.04D-07  0.00D+00 EMaxC= 1.00D-01 BMatC= 2.01D-11 BMatP= 2.01D-11
 IDIUse=1 WtCom= 1.00D+00 WtEn= 0.00D+00
 Large coefficients: NSaved=  7 BigCof=   10.68 CofMax=   10.00 Det=-2.90D-15
 Inversion failed.  Reducing to  6 matrices.
 Coeff-Com:  0.301D-01-0.231D+00-0.994D+00 0.192D+01 0.349D+00-0.711D-01
 Coeff:      0.301D-01-0.231D+00-0.994D+00 0.192D+01 0.349D+00-0.711D-01
 Gap=     0.995 Goal=   None    Shift=    0.000
 Gap=     0.475 Goal=   None    Shift=    0.000
 RMSDP=8.90D-08 MaxDP=3.13D-06 DE= 6.39D-11 OVMax= 7.33D-06

 Cycle  46  Pass 1  IDiag  1:
 E= -435.067762855765     Delta-E=       -0.000000000056 Rises=F Damp=F
 DIIS: error= 5.07D-07 at cycle  46 NSaved=   7.
 NSaved= 7 IEnMin= 1 EnMin= -435.067762880349     IErMin= 2 ErrMin= 4.72D-07
 ErrMax= 5.07D-07  0.00D+00 EMaxC= 1.00D-01 BMatC= 2.01D-11 BMatP= 2.01D-11
 IDIUse=1 WtCom= 1.00D+00 WtEn= 0.00D+00
 Large coefficients: NSaved=  7 BigCof=   44.48 CofMax=   10.00 Det=-2.10D-16
 Inversion failed.  Reducing to  6 matrices.
 Coeff-Com:  0.316D-01-0.246D+00-0.107D+01 0.206D+01-0.359D+00 0.577D+00
 Coeff:      0.316D-01-0.246D+00-0.107D+01 0.206D+01-0.359D+00 0.577D+00
 Gap=     0.995 Goal=   None    Shift=    0.000
 Gap=     0.475 Goal=   None    Shift=    0.000
 RMSDP=4.47D-09 MaxDP=1.62D-07 DE=-5.57D-11 OVMax= 3.70D-07

 SCF Done:  E(UHF) =  -435.067762856     A.U. after   46 cycles
            NFock= 46  Conv=0.45D-08     -V/T= 2.0020
 <Sx>= 0.0000 <Sy>= 0.0000 <Sz>= 0.5000 <S**2>= 0.7565 S= 0.5032
 <L.S>= 0.000000000000E+00
 KE= 4.341802750359D+02 PE=-1.442103373320D+03 EE= 3.640242150157D+02
 Annihilation of the first spin contaminant:
 S**2 before annihilation     0.7565,   after     0.7500
 Leave Link  502 at Tue Mar  7 16:07:55 2017, MaxMem=   131072000 cpu:         5.3
 (Enter /mnt/software/gaussian/g09/l601.exe)
 Copying SCF densities to generalized density rwf, IOpCl= 1 IROHF=0.

 **********************************************************************

            Population analysis using the SCF density.

 **********************************************************************

 Orbital symmetries:
 Alpha Orbitals:
       Occupied  (A) (A) (A) (A) (A) (A) (A) (A) (A) (A) (A) (A)
                 (A) (A) (A) (A) (A) (A) (A) (A) (A)
       Virtual   (A) (A) (A) (A) (A) (A) (A) (A) (A) (A) (A) (A)
                 (A) (A) (A) (A) (A) (A) (A) (A) (A) (A) (A) (A)
                 (A) (A) (A) (A) (A) (A) (A) (A) (A) (A) (A) (A)
                 (A) (A) (A) (A) (A) (A) (A) (A) (A) (A) (A) (A)
                 (A) (A) (A) (A) (A) (A)
 Beta  Orbitals:
       Occupied  (A) (A) (A) (A) (A) (A) (A) (A) (A) (A) (A) (A)
                 (A) (A) (A) (A) (A) (A) (A) (A)
       Virtual   (A) (A) (A) (A) (A) (A) (A) (A) (A) (A) (A) (A)
                 (A) (A) (A) (A) (A) (A) (A) (A) (A) (A) (A) (A)
                 (A) (A) (A) (A) (A) (A) (A) (A) (A) (A) (A) (A)
                 (A) (A) (A) (A) (A) (A) (A) (A) (A) (A) (A) (A)
                 (A) (A) (A) (A) (A) (A) (A)
 The electronic state is 2-A.
 Alpha  occ. eigenvalues --  -27.00703 -26.67315 -26.67256 -26.65200 -11.92969
 Alpha  occ. eigenvalues --   -2.31998  -2.05685  -1.96975  -1.95640  -1.44347
 Alpha  occ. eigenvalues --   -1.41708  -1.31866  -1.22819  -1.13971  -1.12712
 Alpha  occ. eigenvalues --   -1.03476  -1.01274  -1.00514  -0.96961  -0.96162
 Alpha  occ. eigenvalues --   -0.94639
 Alpha virt. eigenvalues --    0.04880   0.10992   0.12132   0.17890   0.32030
 Alpha virt. eigenvalues --    0.37674   0.38443   0.43108   0.90501   0.92039
 Alpha virt. eigenvalues --    0.94863   1.04425   1.05035   1.13493   1.16082
 Alpha virt. eigenvalues --    1.19555   1.30533   1.31353   1.35516   1.35858
 Alpha virt. eigenvalues --    1.39050   1.39089   1.44331   1.44526   1.51434
 Alpha virt. eigenvalues --    1.71232   1.71316   1.82286   1.83762   1.84393
 Alpha virt. eigenvalues --    1.87823   1.92526   1.92826   1.93476   1.95170
 Alpha virt. eigenvalues --    1.97066   2.07515   2.08247   2.12448   2.28604
 Alpha virt. eigenvalues --    2.59002   2.61015   2.61881   2.83984   2.84612
 Alpha virt. eigenvalues --    3.00814   3.11763   3.12699   3.13485   4.32493
 Alpha virt. eigenvalues --    4.40756   4.46563   4.47276   6.00567
  Beta  occ. eigenvalues --  -26.95553 -26.66986 -26.66937 -26.65228 -11.93202
  Beta  occ. eigenvalues --   -2.17075  -2.02581  -1.95949  -1.95426  -1.39791
  Beta  occ. eigenvalues --   -1.27286  -1.22047  -1.15096  -1.11846  -1.01137
  Beta  occ. eigenvalues --   -1.00532  -0.99473  -0.96712  -0.96004  -0.94414
  Beta virt. eigenvalues --   -0.46950   0.07219   0.12202   0.14747   0.17968
  Beta virt. eigenvalues --    0.32753   0.38313   0.38434   0.43252   0.92447
  Beta virt. eigenvalues --    0.95998   1.00181   1.05261   1.05381   1.13979
  Beta virt. eigenvalues --    1.20371   1.24184   1.31673   1.32773   1.35976
  Beta virt. eigenvalues --    1.36571   1.39160   1.39443   1.48604   1.48790
  Beta virt. eigenvalues --    1.52043   1.74175   1.74603   1.82502   1.84161
  Beta virt. eigenvalues --    1.84558   1.89215   1.93594   1.93664   1.96194
  Beta virt. eigenvalues --    1.97439   1.97832   2.08338   2.08450   2.12490
  Beta virt. eigenvalues --    2.29185   2.60718   2.62183   2.62265   2.84573
  Beta virt. eigenvalues --    2.84638   3.02446   3.11916   3.13015   3.13484
  Beta virt. eigenvalues --    4.34360   4.40833   4.46864   4.47415   6.01010
     Alpha Molecular Orbital Coefficients:
                           1         2         3         4         5
                           O         O         O         O         O
     Eigenvalues --   -27.00703 -26.67315 -26.67256 -26.65200 -11.92969
   1 1   C  1S          0.00002   0.00001   0.00001   0.00001   0.99610
   2        2S          0.00050   0.00045   0.00047   0.00046   0.02401
   3        2PX         0.00045  -0.00006  -0.00050   0.00014   0.00156
   4        2PY        -0.00020  -0.00038   0.00001   0.00055  -0.00078
   5        2PZ        -0.00035   0.00046  -0.00032   0.00021  -0.00126
   6        3S         -0.00040   0.00047   0.00050   0.00054  -0.00062
   7        3PX        -0.00027   0.00004   0.00004   0.00004   0.00023
   8        3PY         0.00008  -0.00001  -0.00002   0.00000  -0.00012
   9        3PZ         0.00019  -0.00003  -0.00003  -0.00002  -0.00019
  10        4XX         0.00014   0.00005   0.00012   0.00007  -0.00029
  11        4YY         0.00007   0.00010   0.00006   0.00014  -0.00066
  12        4ZZ         0.00010   0.00011   0.00009   0.00007  -0.00046
  13        4XY        -0.00004   0.00001   0.00000   0.00003  -0.00021
  14        4XZ        -0.00008  -0.00001   0.00005   0.00001  -0.00036
  15        4YZ         0.00004  -0.00006   0.00000   0.00003   0.00014
  16 2   F  1S         -0.00003   0.99422   0.02058   0.00060  -0.00007
  17        2S          0.00005   0.01796   0.00048   0.00012   0.00069
  18        2PX        -0.00002   0.00023   0.00001   0.00000   0.00005
  19        2PY         0.00000   0.00068   0.00000  -0.00002   0.00026
  20        2PZ         0.00002  -0.00094   0.00000   0.00000  -0.00032
  21        3S         -0.00010   0.00762  -0.00021  -0.00039  -0.00196
  22        3PX        -0.00003  -0.00014   0.00004  -0.00004  -0.00025
  23        3PY        -0.00004  -0.00049  -0.00009  -0.00016  -0.00084
  24        3PZ         0.00008   0.00064   0.00017   0.00009   0.00112
  25        4XX         0.00000  -0.00447  -0.00003   0.00005   0.00035
  26        4YY         0.00001  -0.00466  -0.00007  -0.00003   0.00021
  27        4ZZ        -0.00006  -0.00477  -0.00012   0.00005   0.00003
  28        4XY        -0.00001  -0.00005   0.00002  -0.00002  -0.00009
  29        4XZ         0.00005   0.00006  -0.00003   0.00001   0.00009
  30        4YZ         0.00003   0.00028   0.00006   0.00006   0.00027
  31 3   F  1S         -0.00003  -0.02055   0.99422   0.00062  -0.00007
  32        2S          0.00005  -0.00026   0.01796   0.00013   0.00069
  33        2PX        -0.00002  -0.00003   0.00104  -0.00001   0.00035
  34        2PY         0.00001   0.00001  -0.00009  -0.00001  -0.00002
  35        2PZ         0.00001  -0.00003   0.00054  -0.00001   0.00022
  36        3S         -0.00009  -0.00053   0.00760  -0.00039  -0.00196
  37        3PX        -0.00009  -0.00010  -0.00072  -0.00015  -0.00124
  38        3PY         0.00002   0.00006   0.00005  -0.00006   0.00010
  39        3PZ        -0.00003  -0.00012  -0.00040  -0.00010  -0.00068
  40        4XX        -0.00009   0.00012  -0.00483  -0.00001  -0.00005
  41        4YY         0.00002   0.00014  -0.00446   0.00005   0.00035
  42        4ZZ         0.00002   0.00009  -0.00460   0.00002   0.00028
  43        4XY         0.00003   0.00003   0.00003  -0.00004   0.00004
  44        4XZ        -0.00001  -0.00006  -0.00027  -0.00005  -0.00025
  45        4YZ         0.00000   0.00003   0.00002  -0.00003   0.00004
  46 4   F  1S          0.99403   0.00005   0.00005   0.00005   0.00004
  47        2S          0.01835   0.00012   0.00012   0.00012   0.00145
  48        2PX        -0.00074   0.00001   0.00002   0.00001  -0.00031
  49        2PY         0.00032   0.00000   0.00000  -0.00002   0.00013
  50        2PZ         0.00057  -0.00002   0.00000  -0.00001   0.00024
  51        3S          0.00997  -0.00043  -0.00045  -0.00045  -0.00449
  52        3PX         0.00039   0.00012   0.00017   0.00010   0.00222
  53        3PY        -0.00016   0.00000  -0.00005  -0.00012  -0.00095
  54        3PZ        -0.00030  -0.00014  -0.00005  -0.00011  -0.00171
  55        4XX        -0.00553   0.00002  -0.00003   0.00005   0.00002
  56        4YY        -0.00532   0.00007   0.00005   0.00002   0.00081
  57        4ZZ        -0.00534   0.00000   0.00007   0.00002   0.00041
  58        4XY         0.00008  -0.00001   0.00003   0.00005   0.00047
  59        4XZ         0.00031   0.00006   0.00003   0.00003   0.00086
  60        4YZ        -0.00017   0.00000   0.00000  -0.00005  -0.00037
  61 5   F  1S         -0.00004  -0.00056  -0.00060   0.99446  -0.00008
  62        2S          0.00000   0.00009   0.00010   0.01794   0.00065
  63        2PX        -0.00001   0.00001   0.00001  -0.00018  -0.00009
  64        2PY         0.00002   0.00002   0.00001  -0.00107  -0.00037
  65        2PZ         0.00002  -0.00001   0.00001  -0.00045  -0.00014
  66        3S          0.00005  -0.00037  -0.00038   0.00746  -0.00181
  67        3PX         0.00000   0.00003   0.00009   0.00015   0.00020
  68        3PY         0.00006   0.00017   0.00013   0.00076   0.00121
  69        3PZ         0.00003  -0.00001   0.00010   0.00031   0.00051
  70        4XX        -0.00002   0.00005   0.00003  -0.00443   0.00034
  71        4YY        -0.00009  -0.00005   0.00001  -0.00485  -0.00005
  72        4ZZ        -0.00004   0.00007   0.00003  -0.00448   0.00025
  73        4XY         0.00002  -0.00002  -0.00006  -0.00011  -0.00004
  74        4XZ         0.00002   0.00000  -0.00003  -0.00004  -0.00004
  75        4YZ        -0.00006   0.00001  -0.00005  -0.00021  -0.00019
                           6         7         8         9        10
                           O         O         O         O         O
     Eigenvalues --    -2.31998  -2.05685  -1.96975  -1.95640  -1.44347
   1 1   C  1S         -0.06334  -0.09131   0.00034  -0.00852   0.09401
   2        2S          0.12057   0.18198  -0.00070   0.01756  -0.22252
   3        2PX         0.06516  -0.07040   0.07191   0.07832  -0.14433
   4        2PY        -0.02856   0.01743  -0.06981   0.14385   0.06495
   5        2PZ        -0.05059   0.04819   0.13144   0.03358   0.11271
   6        3S         -0.06082  -0.01864  -0.00005   0.00167   0.01386
   7        3PX        -0.01274   0.00678  -0.00149  -0.00062  -0.00239
   8        3PY         0.00553  -0.00144   0.00143  -0.00206  -0.00028
   9        3PZ         0.00986  -0.00452  -0.00268  -0.00076   0.00124
  10        4XX         0.00560  -0.01076  -0.02046  -0.01061  -0.00844
  11        4YY        -0.01081   0.00294   0.01393   0.02272   0.01336
  12        4ZZ        -0.00237  -0.00240   0.00656  -0.01284   0.00138
  13        4XY        -0.00995   0.00913   0.00236   0.01045   0.01362
  14        4XZ        -0.01770   0.01818  -0.01958  -0.00399   0.02276
  15        4YZ         0.00746  -0.00964  -0.01794   0.02242  -0.00921
  16 2   F  1S         -0.02109  -0.12389  -0.15895   0.08050  -0.03348
  17        2S          0.04037   0.28658   0.37761  -0.19163   0.08926
  18        2PX         0.00700   0.00413   0.01810   0.00204  -0.04023
  19        2PY         0.00870   0.04345   0.03453  -0.00591  -0.02114
  20        2PZ        -0.01676  -0.04864  -0.04076   0.02888   0.06894
  21        3S          0.06257   0.24489   0.29776  -0.15071   0.05872
  22        3PX         0.00658   0.00487   0.01194  -0.00071  -0.02304
  23        3PY         0.01045   0.02925   0.01864  -0.00347  -0.01808
  24        3PZ        -0.01792  -0.03526  -0.02531   0.01635   0.04576
  25        4XX        -0.00203   0.00953   0.01744  -0.00812   0.00840
  26        4YY         0.00030   0.01516   0.01925  -0.00900   0.00634
  27        4ZZ         0.00292   0.01926   0.02261  -0.01274  -0.00013
  28        4XY         0.00159   0.00112   0.00178  -0.00005  -0.00306
  29        4XZ        -0.00115  -0.00310  -0.00335   0.00109   0.00294
  30        4YZ        -0.00428  -0.00956  -0.00587   0.00203   0.00603
  31 3   F  1S         -0.02105  -0.12312   0.15780   0.08383  -0.03341
  32        2S          0.04027   0.28473  -0.37479  -0.19951   0.08899
  33        2PX         0.01917   0.05208  -0.05198  -0.02220  -0.08031
  34        2PY        -0.00277  -0.00194  -0.00277   0.01581   0.01690
  35        2PZ         0.00541   0.03896  -0.02119  -0.01368  -0.00461
  36        3S          0.06250   0.24344  -0.29567  -0.15697   0.05870
  37        3PX         0.02037   0.03812  -0.03172  -0.01381  -0.05255
  38        3PY        -0.00254  -0.00220  -0.00009   0.00822   0.00990
  39        3PZ         0.00717   0.02547  -0.01086  -0.00650  -0.00830
  40        4XX         0.00404   0.02186  -0.02580  -0.01276  -0.00211
  41        4YY        -0.00191   0.00813  -0.01527  -0.00888   0.00823
  42        4ZZ        -0.00097   0.01370  -0.01780  -0.00946   0.00836
  43        4XY        -0.00036  -0.00137   0.00046   0.00191   0.00145
  44        4XZ         0.00401   0.00822  -0.00413  -0.00215  -0.00535
  45        4YZ        -0.00066  -0.00014   0.00018   0.00044   0.00131
  46 4   F  1S         -0.22166   0.05822  -0.00016   0.00385  -0.06014
  47        2S          0.55264  -0.16092   0.00043  -0.01030   0.18101
  48        2PX        -0.06899  -0.01516   0.01396   0.01101   0.42061
  49        2PY         0.03002   0.00455  -0.01353   0.02342  -0.17803
  50        2PZ         0.05348   0.01078   0.02540   0.00641  -0.32515
  51        3S          0.39914  -0.08154   0.00027  -0.00680   0.11812
  52        3PX        -0.04640  -0.01482   0.00713   0.00542   0.22503
  53        3PY         0.02004   0.00516  -0.00690   0.01213  -0.09489
  54        3PZ         0.03589   0.01088   0.01294   0.00348  -0.17377
  55        4XX         0.03121  -0.00772  -0.00175  -0.00202   0.00020
  56        4YY         0.02062  -0.01150  -0.00083   0.00060   0.02198
  57        4ZZ         0.03613  -0.01245   0.00265  -0.00009   0.01485
  58        4XY        -0.01109  -0.00075   0.00151  -0.00149   0.01128
  59        4XZ        -0.00240  -0.00644  -0.00102  -0.00012   0.02725
  60        4YZ        -0.00382   0.00397   0.00012   0.00177  -0.01348
  61 5   F  1S         -0.01979  -0.10138   0.00225  -0.19100  -0.03383
  62        2S          0.03705   0.23289  -0.00530   0.45149   0.08741
  63        2PX         0.00095  -0.01789   0.00687  -0.00872  -0.01997
  64        2PY        -0.01678  -0.05150  -0.00555  -0.06238   0.06024
  65        2PZ        -0.00921  -0.01678   0.01258  -0.02729   0.04211
  66        3S          0.06049   0.20200  -0.00423   0.35950   0.06366
  67        3PX        -0.00024  -0.01076   0.00329  -0.00278  -0.00830
  68        3PY        -0.01892  -0.03716  -0.00256  -0.03725   0.04191
  69        3PZ        -0.00966  -0.01329   0.00609  -0.01766   0.02620
  70        4XX        -0.00274   0.00807   0.00002   0.01954   0.00870
  71        4YY         0.00420   0.01977   0.00057   0.03029  -0.00255
  72        4ZZ        -0.00107   0.00873  -0.00143   0.02133   0.00503
  73        4XY         0.00111   0.00355  -0.00074   0.00168  -0.00004
  74        4XZ         0.00110   0.00077  -0.00012   0.00050  -0.00104
  75        4YZ         0.00304   0.00604  -0.00077   0.00583  -0.00574
                          11        12        13        14        15
                           O         O         O         O         O
     Eigenvalues --    -1.41708  -1.31866  -1.22819  -1.13971  -1.12712
   1 1   C  1S          0.00017   0.00127  -0.09975  -0.00023   0.00536
   2        2S         -0.00040  -0.00345   0.26880   0.00064  -0.01530
   3        2PX         0.03937   0.07149  -0.18123  -0.14769  -0.14930
   4        2PY        -0.03847   0.11407   0.06284   0.14332  -0.27091
   5        2PZ         0.07310   0.02149   0.13291  -0.27009  -0.06207
   6        3S         -0.00009   0.00360   0.01893   0.00009  -0.00227
   7        3PX        -0.00463   0.00418  -0.00854  -0.02083  -0.02102
   8        3PY         0.00449   0.00610   0.00250   0.02020  -0.03823
   9        3PZ        -0.00844   0.00096   0.00606  -0.03807  -0.00879
  10        4XX         0.01124   0.01498  -0.01067   0.01725   0.01676
  11        4YY         0.00587  -0.00899   0.00456  -0.00304  -0.01580
  12        4ZZ        -0.01711  -0.00541  -0.00259  -0.01424  -0.00028
  13        4XY        -0.00981   0.01209   0.01133  -0.00750   0.00771
  14        4XZ         0.00661  -0.00493   0.01990   0.01375  -0.00194
  15        4YZ        -0.00120  -0.01038  -0.01044   0.00800  -0.01788
  16 2   F  1S          0.02227  -0.01560   0.05202  -0.04250   0.01940
  17        2S         -0.06028   0.04144  -0.13526   0.10295  -0.04604
  18        2PX         0.03696   0.00290  -0.05180  -0.14645  -0.13855
  19        2PY         0.01757   0.00589   0.22834  -0.25869  -0.04587
  20        2PZ        -0.03826   0.06873  -0.17071   0.17705  -0.26113
  21        3S         -0.04396   0.03774  -0.13314   0.15031  -0.07199
  22        3PX         0.02252   0.00271  -0.03306  -0.08932  -0.09031
  23        3PY         0.00918   0.00670   0.14015  -0.15334  -0.03436
  24        3PZ        -0.01794   0.03992  -0.10327   0.09890  -0.15881
  25        4XX        -0.00431   0.00521  -0.01518   0.00568  -0.00745
  26        4YY        -0.00419   0.00475   0.00126  -0.00316  -0.00886
  27        4ZZ        -0.00495  -0.00257  -0.00032  -0.00175   0.01742
  28        4XY         0.00119   0.00151  -0.00058  -0.00938  -0.00526
  29        4XZ        -0.00172  -0.00006   0.00104   0.00873   0.00435
  30        4YZ        -0.00151   0.00084  -0.01760   0.01495  -0.00431
  31 3   F  1S         -0.02214  -0.01616   0.05190   0.04223   0.02018
  32        2S          0.05984   0.04287  -0.13495  -0.10232  -0.04791
  33        2PX        -0.05556  -0.04612   0.16942   0.30557   0.08664
  34        2PY        -0.00026   0.05004   0.01890   0.11150  -0.24917
  35        2PZ         0.00395  -0.01694   0.23277   0.11488   0.14046
  36        3S          0.04382   0.03917  -0.13273  -0.14923  -0.07482
  37        3PX        -0.02958  -0.02490   0.10222   0.17853   0.04649
  38        3PY        -0.00277   0.03156   0.01213   0.07116  -0.15788
  39        3PZ         0.00487  -0.00830   0.14339   0.06474   0.08533
  40        4XX         0.00212   0.00156   0.00097   0.01576   0.00149
  41        4YY         0.00584   0.00299  -0.01460  -0.00959  -0.00104
  42        4ZZ         0.00531   0.00305  -0.00060  -0.00697   0.00068
  43        4XY        -0.00116   0.00461   0.00035   0.00580  -0.01468
  44        4XZ        -0.00036  -0.00213   0.01789   0.01097   0.00835
  45        4YZ        -0.00053   0.00128   0.00022   0.00205  -0.00819
  46 4   F  1S         -0.00012   0.00051  -0.00337  -0.00001   0.00007
  47        2S          0.00033  -0.00024   0.00511   0.00001   0.00010
  48        2PX         0.31060   0.33065   0.15818   0.07497   0.11561
  49        2PY        -0.30171   0.57241  -0.04440  -0.07279   0.20017
  50        2PZ         0.56803   0.12324  -0.11022   0.13738   0.04300
  51        3S          0.00034  -0.00417   0.03201   0.00007  -0.00149
  52        3PX         0.16593   0.18847   0.07538   0.04316   0.07080
  53        3PY        -0.16119   0.32427  -0.01850  -0.04191   0.12090
  54        3PZ         0.30349   0.06919  -0.05117   0.07915   0.02545
  55        4XX        -0.01823  -0.02075  -0.00124  -0.00048  -0.00260
  56        4YY        -0.00825   0.01532   0.00103   0.00104   0.00298
  57        4ZZ         0.02651   0.00650   0.00043  -0.00056  -0.00030
  58        4XY         0.01519  -0.01589   0.00034  -0.00040  -0.00064
  59        4XZ        -0.01094   0.00524   0.00198  -0.00069   0.00028
  60        4YZ         0.00091   0.01747  -0.00054  -0.00101   0.00305
  61 5   F  1S         -0.00033   0.03033   0.05027   0.00061  -0.04774
  62        2S          0.00086  -0.07698  -0.13051  -0.00149   0.11438
  63        2PX         0.01030   0.02553  -0.13949  -0.11013   0.08403
  64        2PY        -0.00934  -0.07784  -0.21262   0.09891   0.31057
  65        2PZ         0.01960  -0.05374  -0.03302  -0.19967   0.11116
  66        3S          0.00073  -0.08060  -0.12610  -0.00207   0.16975
  67        3PX         0.00801   0.01743  -0.08684  -0.06948   0.05172
  68        3PY        -0.00738  -0.03908  -0.13109   0.06258   0.18151
  69        3PZ         0.01505  -0.02944  -0.01990  -0.12594   0.06335
  70        4XX         0.00020  -0.00568  -0.00990   0.00108   0.00994
  71        4YY         0.00226  -0.00073   0.00787  -0.01081  -0.01507
  72        4ZZ        -0.00231  -0.00425  -0.01265   0.00970   0.00483
  73        4XY        -0.00144  -0.00061   0.01137   0.00615  -0.00427
  74        4XZ        -0.00061  -0.00054   0.00310   0.00440  -0.00319
  75        4YZ        -0.00181   0.00345   0.00697   0.00947  -0.01145
                          16        17        18        19        20
                           O         O         O         O         O
     Eigenvalues --    -1.03476  -1.01274  -1.00514  -0.96961  -0.96162
   1 1   C  1S         -0.02625  -0.00029   0.00951  -0.00002  -0.00044
   2        2S          0.06172   0.00073  -0.02472   0.00008   0.00016
   3        2PX         0.00696  -0.03821  -0.07297  -0.04303  -0.03667
   4        2PY        -0.02368   0.03499  -0.11625   0.04130  -0.07544
   5        2PZ        -0.01580  -0.06940  -0.02072  -0.07831  -0.01935
   6        3S          0.06816   0.00075  -0.02120  -0.00010   0.00523
   7        3PX         0.07140   0.00888  -0.00674   0.03244   0.04250
   8        3PY        -0.02506  -0.00780   0.03220  -0.03139   0.05359
   9        3PZ        -0.05240   0.01408   0.02048   0.05994   0.00460
  10        4XX        -0.02074   0.00611  -0.00305   0.02831   0.01694
  11        4YY         0.01380  -0.03172  -0.02518  -0.01526  -0.02509
  12        4ZZ         0.00609   0.02560   0.02864  -0.01306   0.00857
  13        4XY         0.01124   0.01622  -0.04079  -0.00585   0.00038
  14        4XZ         0.04069   0.01508   0.00504   0.02553   0.00523
  15        4YZ        -0.01881   0.02753  -0.01524   0.02133  -0.02993
  16 2   F  1S          0.00730  -0.00706   0.00382  -0.00230   0.00063
  17        2S         -0.02453   0.02807  -0.01441   0.01354  -0.00499
  18        2PX         0.35540  -0.15135   0.25455   0.38037   0.00821
  19        2PY        -0.11865   0.20773   0.18960  -0.18355   0.29584
  20        2PZ        -0.18272   0.32579   0.07781   0.17803   0.10708
  21        3S         -0.01009   0.00289  -0.00306  -0.01977   0.01150
  22        3PX         0.23503  -0.10598   0.17712   0.25488  -0.00127
  23        3PY        -0.07650   0.14406   0.12527  -0.12721   0.19739
  24        3PZ        -0.12005   0.22351   0.05215   0.11905   0.06853
  25        4XX        -0.00009   0.00447  -0.00071   0.01416  -0.00179
  26        4YY        -0.01338   0.02083   0.00449  -0.00338   0.00963
  27        4ZZ         0.00799  -0.01478  -0.00869  -0.00443  -0.01042
  28        4XY         0.01031  -0.00197   0.00826   0.00976   0.00203
  29        4XZ        -0.01769   0.01194  -0.01053  -0.01284   0.00200
  30        4YZ        -0.00027   0.00114  -0.00424   0.01131  -0.00899
  31 3   F  1S          0.00725   0.00727   0.00391   0.00233   0.00066
  32        2S         -0.02421  -0.02872  -0.01463  -0.01350  -0.00505
  33        2PX         0.29885   0.25222   0.17066  -0.04492   0.03462
  34        2PY        -0.06432  -0.29730   0.26688  -0.13875   0.26383
  35        2PZ        -0.27200  -0.15812  -0.07207   0.43596   0.16610
  36        3S         -0.01036  -0.00328  -0.00329   0.01938   0.01146
  37        3PX         0.19768   0.17367   0.11773  -0.02877   0.02092
  38        3PY        -0.04060  -0.20420   0.18010  -0.09002   0.17171
  39        3PZ        -0.17874  -0.11088  -0.05408   0.29485   0.11646
  40        4XX         0.01916   0.01338   0.00893  -0.01121  -0.00153
  41        4YY        -0.00547  -0.00832  -0.00607  -0.00559  -0.00563
  42        4ZZ        -0.01894  -0.01568  -0.00777   0.01054   0.00460
  43        4XY        -0.00477  -0.01534   0.00941  -0.00602   0.01094
  44        4XZ        -0.00571  -0.00321   0.00002   0.01792   0.00747
  45        4YZ        -0.00068  -0.00627   0.00723  -0.00306   0.00357
  46 4   F  1S          0.01586   0.00017  -0.00466  -0.00004   0.00159
  47        2S         -0.03764  -0.00038   0.01041   0.00006  -0.00290
  48        2PX         0.18301   0.03786   0.00570  -0.01613  -0.01820
  49        2PY        -0.04529  -0.03400   0.10682   0.01515  -0.05681
  50        2PZ        -0.12493   0.06408   0.05248  -0.02870  -0.01994
  51        3S         -0.09410  -0.00107   0.02935   0.00027  -0.01214
  52        3PX         0.11631   0.01686  -0.00429  -0.01066  -0.01012
  53        3PY        -0.03290  -0.01482   0.05686   0.01004  -0.03602
  54        3PZ        -0.08131   0.02753   0.03203  -0.01894  -0.01339
  55        4XX        -0.00176   0.00276   0.00016   0.00102   0.00213
  56        4YY         0.00299  -0.00284  -0.00368   0.00094   0.00021
  57        4ZZ         0.00150   0.00013   0.00189  -0.00199  -0.00104
  58        4XY         0.00213   0.00028  -0.00324  -0.00115   0.00263
  59        4XZ         0.00557   0.00300   0.00001   0.00045  -0.00061
  60        4YZ        -0.00262   0.00317  -0.00212  -0.00045  -0.00076
  61 5   F  1S          0.00427  -0.00001  -0.01482   0.00003  -0.00252
  62        2S         -0.01133   0.00001   0.05080  -0.00017   0.01217
  63        2PX         0.17873   0.13282  -0.27182   0.09713   0.46373
  64        2PY        -0.04722  -0.12198   0.24383  -0.09515   0.17439
  65        2PZ        -0.12617   0.23479   0.27504   0.18162  -0.16798
  66        3S         -0.01154   0.00005   0.02051   0.00015  -0.01619
  67        3PX         0.11404   0.09183  -0.19019   0.06236   0.31812
  68        3PY        -0.03066  -0.08448   0.16454  -0.06123   0.11902
  69        3PZ        -0.08096   0.16260   0.18930   0.11672  -0.11561
  70        4XX        -0.00514  -0.00291   0.01670  -0.00021  -0.00089
  71        4YY         0.00260   0.00969  -0.00661   0.00618  -0.00678
  72        4ZZ         0.00309  -0.00678   0.00298  -0.00605   0.01232
  73        4XY        -0.00887  -0.00454   0.01329  -0.00354  -0.02348
  74        4XZ        -0.00208  -0.00521   0.00547  -0.00205  -0.00758
  75        4YZ         0.00735  -0.00871  -0.01987  -0.00506   0.00529
                          21        22        23        24        25
                           O         V         V         V         V
     Eigenvalues --    -0.94639   0.04880   0.10992   0.12132   0.17890
[...]
  16 2   F  1S          1.99550   0.99773   0.99777  -0.00003
  17        2S          1.00331   0.50259   0.50072   0.00187
  18        2PX         1.17290   0.59806   0.57484   0.02323
  19        2PY         1.10048   0.55085   0.54963   0.00122
  20        2PZ         1.00054   0.51125   0.48929   0.02196
  21        3S          0.84229   0.42045   0.42184  -0.00140
  22        3PX         0.71369   0.35744   0.35624   0.00120
  23        3PY         0.65130   0.32509   0.32621  -0.00112
  24        3PZ         0.61144   0.30767   0.30377   0.00390
  25        4XX         0.03244   0.01637   0.01606   0.00031
  26        4YY         0.03683   0.01815   0.01869  -0.00054
  27        4ZZ         0.04252   0.02141   0.02110   0.00031
  28        4XY         0.00227   0.00112   0.00115  -0.00003
  29        4XZ         0.00385   0.00173   0.00212  -0.00038
  30        4YZ         0.00979   0.00487   0.00492  -0.00004
  31 3   F  1S          1.99550   0.99773   0.99777  -0.00003
  32        2S          1.00320   0.50250   0.50069   0.00181
  33        2PX         0.93734   0.48835   0.44899   0.03937
  34        2PY         1.20952   0.60578   0.60375   0.00203
  35        2PZ         1.12732   0.56547   0.56185   0.00362
  36        3S          0.84231   0.42048   0.42183  -0.00134
  37        3PX         0.58676   0.29711   0.28965   0.00746
  38        3PY         0.71592   0.35735   0.35857  -0.00122
  39        3PZ         0.67414   0.33590   0.33825  -0.00235
  40        4XX         0.04698   0.02383   0.02315   0.00068
  41        4YY         0.03130   0.01537   0.01593  -0.00056
  42        4ZZ         0.03553   0.01750   0.01803  -0.00053
  43        4XY         0.00393   0.00196   0.00197  -0.00002
  44        4XZ         0.00883   0.00445   0.00439   0.00006
  45        4YZ         0.00112   0.00056   0.00057  -0.00001
  46 4   F  1S          1.99562   0.99762   0.99800  -0.00037
  47        2S          1.07484   0.55394   0.52090   0.03305
  48        2PX         1.08950   0.61749   0.47201   0.14548
  49        2PY         1.19634   0.66656   0.52978   0.13678
  50        2PZ         0.86543   0.65170   0.21372   0.43798
  51        3S          0.78330   0.38022   0.40308  -0.02286
  52        3PX         0.52471   0.28431   0.24041   0.04390
  53        3PY         0.57717   0.30664   0.27053   0.03611
  54        3PZ         0.40680   0.28762   0.11918   0.16844
  55        4XX         0.04735   0.02101   0.02634  -0.00532
  56        4YY         0.03791   0.01654   0.02137  -0.00483
  57        4ZZ         0.04003   0.02562   0.01441   0.01122
  58        4XY         0.00398   0.00200   0.00198   0.00002
  59        4XZ         0.00764   0.00362   0.00402  -0.00040
  60        4YZ         0.00315   0.00148   0.00167  -0.00019
  61 5   F  1S          1.99548   0.99774   0.99774   0.00000
  62        2S          0.99956   0.49961   0.49996  -0.00035
  63        2PX         1.18531   0.59212   0.59319  -0.00107
  64        2PY         0.94430   0.47159   0.47272  -0.00113
  65        2PZ         1.15379   0.57641   0.57737  -0.00096
  66        3S          0.84269   0.42158   0.42112   0.00046
  67        3PX         0.71734   0.35889   0.35845   0.00044
  68        3PY         0.57387   0.28708   0.28678   0.00030
  69        3PZ         0.69791   0.34923   0.34868   0.00056
  70        4XX         0.03242   0.01620   0.01622  -0.00002
  71        4YY         0.04822   0.02411   0.02410   0.00001
  72        4ZZ         0.03362   0.01680   0.01682  -0.00002
  73        4XY         0.00497   0.00249   0.00248   0.00001
  74        4XZ         0.00085   0.00042   0.00042   0.00000
  75        4YZ         0.00735   0.00371   0.00365   0.00006
          Condensed to atoms (all electrons):
               1          2          3          4          5
     1  C    3.416511   0.361489   0.361848   0.156317   0.373559
     2  F    0.361489   8.947492  -0.035837  -0.016407  -0.037603
     3  F    0.361848  -0.035837   8.948001  -0.016659  -0.037648
     4  F    0.156317  -0.016407  -0.016659   8.556149  -0.025628
     5  F    0.373559  -0.037603  -0.037648  -0.025628   8.964984
          Atomic-Atomic Spin Densities.
               1          2          3          4          5
     1  C   -0.050857  -0.001276  -0.001165  -0.027264   0.003824
     2  F   -0.001276   0.057598  -0.000356  -0.005711   0.000198
     3  F   -0.001165  -0.000356   0.055827  -0.005540   0.000211
     4  F   -0.027264  -0.005711  -0.005540   1.017200   0.000321
     5  F    0.003824   0.000198   0.000211   0.000321  -0.006254
 Mulliken charges and spin densities:
               1          2
     1  C    1.330276  -0.076737
     2  F   -0.219134   0.050453
     3  F   -0.219705   0.048977
     4  F    0.346228   0.979007
     5  F   -0.237664  -0.001700
 Sum of Mulliken charges =   1.00000   1.00000
 Mulliken charges and spin densities with hydrogens summed into heavy atoms:
               1          2
     1  C    1.330276  -0.076737
     2  F   -0.219134   0.050453
     3  F   -0.219705   0.048977
     4  F    0.346228   0.979007
     5  F   -0.237664  -0.001700
 Electronic spatial extent (au):  <R**2>=            263.3712
 Charge=              1.0000 electrons
 Dipole moment (field-independent basis, Debye):
    X=              2.6381    Y=             -1.2878    Z=             -2.1131  Tot=              3.6171
 Quadrupole moment (field-independent basis, Debye-Ang):
   XX=            -19.2531   YY=            -21.8740   ZZ=            -20.2175
   XY=             -1.3701   XZ=             -2.0544   YZ=              0.6463
 Traceless Quadrupole moment (field-independent basis, Debye-Ang):
   XX=              1.1951   YY=             -1.4258   ZZ=              0.2307
   XY=             -1.3701   XZ=             -2.0544   YZ=              0.6463
 Octapole moment (field-independent basis, Debye-Ang**2):
  XXX=              3.8143  YYY=             -1.0103  ZZZ=             -2.8803  XYY=              0.9722
  XXY=             -1.5804  XXZ=             -1.9348  XZZ=              1.8956  YZZ=             -0.7320
  YYZ=             -0.5677  XYZ=              0.6478
 Hexadecapole moment (field-independent basis, Debye-Ang**3):
 XXXX=            -65.1587 YYYY=            -71.4523 ZZZZ=            -68.0470 XXXY=             -2.6287
 XXXZ=             -2.0629 YYYX=             -0.8322 YYYZ=              0.9338 ZZZX=             -3.1913
 ZZZY=              0.2421 XXYY=            -23.1213 XXZZ=            -21.7607 YYZZ=            -23.1661
 XXYZ=              0.7361 YYXZ=             -0.7998 ZZXY=             -0.4702
 N-N= 2.088311204127D+02 E-N=-1.442103373298D+03  KE= 4.341802750359D+02
 Orbital energies and kinetic energies (alpha):
                                 1                 2
   1         O               -27.007030         37.157902
   2         O               -26.673153         37.187921
   3         O               -26.672561         37.188005
   4         O               -26.651996         37.189872
   5         O               -11.929691         16.023010
   6         O                -2.319985          3.880707
   7         O                -2.056849          3.473616
   8         O                -1.969750          3.784260
   9         O                -1.956399          3.768939
  10         O                -1.443473          3.319501
  11         O                -1.417081          3.604006
  12         O                -1.318656          3.408011
  13         O                -1.228186          3.102168
  14         O                -1.139714          2.997366
  15         O                -1.127115          3.042052
  16         O                -1.034762          3.232643
  17         O                -1.012739          3.240636
  18         O                -1.005143          3.245549
  19         O                -0.969605          3.441022
  20         O                -0.961616          3.440313
  21         O                -0.946392          3.547259
  22         V                 0.048803          3.654123
  23         V                 0.109924          3.082831
  24         V                 0.121318          3.111639
  25         V                 0.178899          3.508360
  26         V                 0.320297          2.242503
  27         V                 0.376743          2.297901
  28         V                 0.384427          2.271274
  29         V                 0.431077          2.404847
  30         V                 0.905015          3.210630
  31         V                 0.920395          4.110366
  32         V                 0.948629          4.175710
  33         V                 1.044254          3.311836
  34         V                 1.050349          3.277386
  35         V                 1.134930          3.795059
  36         V                 1.160820          3.178725
  37         V                 1.195549          3.195270
  38         V                 1.305333          3.498663
  39         V                 1.313527          3.513847
  40         V                 1.355159          3.369614
  41         V                 1.358582          4.338275
  42         V                 1.390504          3.719081
  43         V                 1.390890          3.695109
  44         V                 1.443308          3.097500
  45         V                 1.445255          3.105256
  46         V                 1.514341          3.356249
  47         V                 1.712322          2.951567
  48         V                 1.713160          2.968579
  49         V                 1.822858          2.866698
  50         V                 1.837615          2.984017
  51         V                 1.843934          2.959981
  52         V                 1.878234          3.646348
  53         V                 1.925262          4.352185
  54         V                 1.928259          3.555937
  55         V                 1.934757          3.749853
  56         V                 1.951704          4.290194
  57         V                 1.970656          4.645039
  58         V                 2.075152          3.963940
  59         V                 2.082475          3.901025
  60         V                 2.124477          3.581505
  61         V                 2.286044          3.980462
  62         V                 2.590023          5.182882
  63         V                 2.610149          5.017660
  64         V                 2.618806          5.023848
  65         V                 2.839842          4.237363
  66         V                 2.846119          4.227917
  67         V                 3.008139          5.595547
  68         V                 3.117631          5.811068
  69         V                 3.126988          5.381578
  70         V                 3.134846          5.413121
  71         V                 4.324931         11.857969
  72         V                 4.407557         10.389561
  73         V                 4.465631         12.299818
  74         V                 4.472756         12.307596
  75         V                 6.005672         15.740625
 Orbital energies and kinetic energies (beta):
                                 1                 2
   1         O               -26.955530         37.229065
   2         O               -26.669862         37.192768
   3         O               -26.669370         37.192712
   4         O               -26.652280         37.189547
   5         O               -11.932025         16.020901
   6         O                -2.170754          3.417576
   7         O                -2.025814          3.667970
   8         O                -1.959493          3.770107
   9         O                -1.954260          3.767071
  10         O                -1.397915          3.288763
  11         O                -1.272856          3.239023
  12         O                -1.220465          3.057431
  13         O                -1.150965          2.803635
  14         O                -1.118456          3.088959
  15         O                -1.011371          3.237848
  16         O                -1.005325          3.124247
  17         O                -0.994728          3.235414
  18         O                -0.967122          3.390883
  19         O                -0.960038          3.445270
  20         O                -0.944140          3.546328
  21         V                -0.469503          2.880342
  22         V                 0.072186          3.681295
  23         V                 0.122021          3.140268
  24         V                 0.147471          3.299468
  25         V                 0.179684          3.515107
  26         V                 0.327527          2.260499
  27         V                 0.383126          2.207908
  28         V                 0.384343          2.254785
  29         V                 0.432517          2.410787
  30         V                 0.924473          3.269590
  31         V                 0.959984          4.219899
  32         V                 1.001813          4.379290
  33         V                 1.052607          3.283206
  34         V                 1.053809          3.264311
  35         V                 1.139790          3.830704
  36         V                 1.203712          3.198735
  37         V                 1.241839          3.315708
  38         V                 1.316732          3.575817
  39         V                 1.327725          3.952239
  40         V                 1.359757          4.348579
  41         V                 1.365705          3.392898
  42         V                 1.391600          3.705730
  43         V                 1.394431          3.647895
  44         V                 1.486040          3.143038
  45         V                 1.487899          3.175432
  46         V                 1.520428          3.334369
  47         V                 1.741751          2.921474
  48         V                 1.746026          2.936442
  49         V                 1.825020          2.864774
  50         V                 1.841607          2.951045
  51         V                 1.845579          2.953461
  52         V                 1.892153          3.669169
  53         V                 1.935936          3.789969
  54         V                 1.936638          3.681867
  55         V                 1.961944          4.280935
  56         V                 1.974386          4.512963
  57         V                 1.978316          4.661467
  58         V                 2.083378          3.841597
  59         V                 2.084503          3.879110
  60         V                 2.124895          3.582336
  61         V                 2.291848          3.980559
  62         V                 2.607181          5.173854
  63         V                 2.621831          5.029547
  64         V                 2.622646          5.025796
  65         V                 2.845730          4.231002
  66         V                 2.846380          4.227458
  67         V                 3.024458          5.688481
  68         V                 3.119160          5.795603
  69         V                 3.130151          5.373224
  70         V                 3.134842          5.406236
  71         V                 4.343600         11.770267
  72         V                 4.408334         10.503948
  73         V                 4.468639         12.302106
  74         V                 4.474148         12.305976
  75         V                 6.010098         15.746614
 Total kinetic energy from orbitals= 4.341802750359D+02
                          Isotropic Fermi Contact Couplings
        Atom                 a.u.       MegaHertz       Gauss      10(-4) cm-1
     1  C(13)             -0.04261     -47.89761     -17.09106     -15.97692
     2  F(19)             -0.00699     -29.42669     -10.50017      -9.81569
     3  F(19)             -0.00688     -28.94736     -10.32914      -9.65580
     4  F(19)              0.18357     772.34796     275.59295     257.62755
     5  F(19)             -0.00398     -16.76497      -5.98216      -5.59219
 --------------------------------------------------------
       Center         ----  Spin Dipole Couplings  ----
                      3XX-RR        3YY-RR        3ZZ-RR
 --------------------------------------------------------
     1   Atom        0.033292     -0.026368     -0.006924
     2   Atom        0.117103     -0.218458      0.101354
     3   Atom        0.369221     -0.196313     -0.172908
     4   Atom       -1.327675     -1.433164      2.760840
     5   Atom       -0.008760      0.007682      0.001078
 --------------------------------------------------------
                        XY            XZ            YZ
 --------------------------------------------------------
     1   Atom       -0.021012     -0.057665      0.025000
     2   Atom        0.038891     -0.324163     -0.032858
     3   Atom       -0.087684     -0.159126      0.020381
     4   Atom       -1.700897      3.132678     -3.055685
     5   Atom        0.010654      0.016102     -0.006991
 --------------------------------------------------------


 ---------------------------------------------------------------------------------
              Anisotropic Spin Dipole Couplings in Principal Axis System
 ---------------------------------------------------------------------------------

       Atom             a.u.   MegaHertz   Gauss  10(-4) cm-1        Axes

              Baa    -0.0518    -6.944    -2.478    -2.316  0.4345 -0.4233  0.7950
     1 C(13)  Bbb    -0.0316    -4.247    -1.515    -1.417  0.4624  0.8623  0.2065
              Bcc     0.0834    11.191     3.993     3.733  0.7729 -0.2779 -0.5704
 
              Baa    -0.2239  -112.440   -40.122   -37.506 -0.3164  0.9222 -0.2222
     2 F(19)  Bbb    -0.2135  -107.243   -38.267   -35.772  0.6248  0.3789  0.6827
              Bcc     0.4374   219.683    78.388    73.278  0.7138  0.0772 -0.6961
 
              Baa    -0.2175  -109.232   -38.977   -36.436  0.2943  0.3708  0.8809
     3 F(19)  Bbb    -0.2080  -104.461   -37.274   -34.844  0.0301  0.9176 -0.3963
              Bcc     0.4255   213.693    76.251    71.280  0.9552 -0.1432 -0.2589
 
              Baa    -3.0830 -1548.339  -552.486  -516.470  0.6363  0.7690  0.0610
     4 F(19)  Bbb    -3.0011 -1507.225  -537.815  -502.756  0.6382 -0.4803 -0.6017
              Bcc     6.0840  3055.564  1090.301  1019.226  0.4334 -0.4218  0.7964
 
              Baa    -0.0255   -12.832    -4.579    -4.280  0.7546 -0.3577 -0.5502
     5 F(19)  Bbb     0.0121     6.061     2.163     2.022 -0.1125  0.7555 -0.6454
              Bcc     0.0135     6.771     2.416     2.259  0.6465  0.5489  0.5298
 

 ---------------------------------------------------------------------------------

 No NMR shielding tensors so no spin-rotation constants.
 Leave Link  601 at Tue Mar  7 16:07:57 2017, MaxMem=   131072000 cpu:         5.5
 (Enter /mnt/software/gaussian/g09/l9999.exe)
 1\1\GINC-TP-LINUX1\SP\UHF\6-31G(d)\C1F4(1+,2)\THOMAS\07-Mar-2017\0\\#P
  UHF/6-31G* pop=full gfinput\\\1,2\C,0,-0.69934,2.34967,0.\F,0,0.60215
 ,2.34967,0.\F,0,-1.13316,3.29245,0.78541\F,0,-1.13317,1.1981,0.42375\F
 ,0,-1.13317,2.55847,-1.20916\\Version=ES64L-G09RevD.01\State=2-A\HF=-4
 35.0677629\S2=0.756471\S2-1=0.\S2A=0.750032\RMSD=4.470e-09\Dipole=-0.4
 457859,-1.2505211,0.5124301\Quadrupole=-0.6418479,1.7216225,-1.0797746
 ,0.9963964,-0.5973969,-0.9758348\PG=C01 [X(C1F4)]\\@


 GARLIC THEN HAVE POWER TO SAVE FROM DEATH
 BEAR WITH IT THOUGH IT MAKETH UNSAVORY BREATH,
 AND SCORN NOT GARLIC LIKE SOME THAT THINK
 IT ONLY MAKETH MEN WINK AND DRINK AND STINK.
   --  SIR JOHN HARRINGTON,
       "THE ENGLISHMAN'S DOCTOR", 1609
 Job cpu time:       0 days  0 hours  0 minutes 19.1 seconds.
 File lengths (MBytes):  RWF=      6 Int=      0 D2E=      0 Chk=      2 Scr=      1
 Normal termination of Gaussian 09 at Tue Mar  7 16:07:58 2017.
