 Entering Gaussian System, Link 0=g09
 Input=cf4.com
 Output=cf4.log
 Initial command:
 /mnt/software/gaussian/g09/l1.exe "/scratch/Gau-10659.inp" -scrdir="/scratch/"
 Entering Link 1 = /mnt/software/gaussian/g09/l1.exe PID=     10661.
  
 Copyright (c) 1988,1990,1992,1993,1995,1998,2003,2009,2013,
            Gaussian, Inc.  All Rights Reserved.
  
 This is part of the Gaussian(R) 09 program.  It is based on
 the Gaussian(R) 03 system (copyright 2003, Gaussian, Inc.),
 the Gaussian(R) 98 system (copyright 1998, Gaussian, Inc.),
 the Gaussian(R) 94 system (copyright 1995, Gaussian, Inc.),
 the Gaussian 92(TM) system (copyright 1992, Gaussian, Inc.),
 the Gaussian 90(TM) system (copyright 1990, Gaussian, Inc.),
 the Gaussian 88(TM) system (copyright 1988, Gaussian, Inc.),
 the Gaussian 86(TM) system (copyright 1986, Carnegie Mellon
 University), and the Gaussian 82(TM) system (copyright 1983,
 Carnegie Mellon University). Gaussian is a federally registered
 trademark of Gaussian, Inc.
  
 This software contains proprietary and confidential information,
 including trade secrets, belonging to Gaussian, Inc.
  
 This software is provided under written license and may be
 used, copied, transmitted, or stored only in accord with that
 written license.
  
 The following legend is applicable only to US Government
 contracts under FAR:
  
                    RESTRICTED RIGHTS LEGEND
  
 Use, reproduction and disclosure by the US Government is
 subject to restrictions as set forth in subparagraphs (a)
 and (c) of the Commercial Computer Software - Restricted
 Rights clause in FAR 52.227-19.
  
 Gaussian, Inc.
 340 Quinnipiac St., Bldg. 40, Wallingford CT 06492
  
  
 ---------------------------------------------------------------
 Warning -- This program may not be used in any manner that
 competes with the business of Gaussian, Inc. or will provide
 assistance to any competitor of Gaussian, Inc.  The licensee
 of this program is prohibited from giving any competitor of
 Gaussian, Inc. access to this program.  By using this program,
 the user acknowledges that Gaussian, Inc. is engaged in the
 business of creating and licensing software in the field of
 computational chemistry and represents and warrants to the
 licensee that it is not a competitor of Gaussian, Inc. and that
 it will not use this program in any manner prohibited above.
 ---------------------------------------------------------------
  

 Cite this work as:
 Gaussian 09, Revision D.01,
 M. J. Frisch, G. W. Trucks, H. B. Schlegel, G. E. Scuseria, 
 M. A. Robb, J. R. Cheeseman, G. Scalmani, V. Barone, B. Mennucci, 
 G. A. Petersson, H. Nakatsuji, M. Caricato, X. Li, H. P. Hratchian, 
 A. F. Izmaylov, J. Bloino, G. Zheng, J. L. Sonnenberg, M. Hada, 
 M. Ehara, K. Toyota, R. Fukuda, J. Hasegawa, M. Ishida, T. Nakajima, 
 Y. Honda, O. Kitao, H. Nakai, T. Vreven, J. A. Montgomery, Jr., 
 J. E. Peralta, F. Ogliaro, M. Bearpark, J. J. Heyd, E. Brothers, 
 K. N. Kudin, V. N. Staroverov, T. Keith, R. Kobayashi, J. Normand, 
 K. Raghavachari, A. Rendell, J. C. Burant, S. S. Iyengar, J. Tomasi, 
 M. Cossi, N. Rega, J. M. Millam, M. Klene, J. E. Knox, J. B. Cross, 
 V. Bakken, C. Adamo, J. Jaramillo, R. Gomperts, R. E. Stratmann, 
 O. Yazyev, A. J. Austin, R. Cammi, C. Pomelli, J. W. Ochterski, 
 R. L. Martin, K. Morokuma, V. G. Zakrzewski, G. A. Voth, 
 P. Salvador, J. J. Dannenberg, S. Dapprich, A. D. Daniels, 
 O. Farkas, J. B. Foresman, J. V. Ortiz, J. Cioslowski, 
 and D. J. Fox, Gaussian, Inc., Wallingford CT, 2013.
 
 ******************************************
 Gaussian 09:  ES64L-G09RevD.01 24-Apr-2013
                 2-Mar-2017 
 ******************************************
 %chk=cf4.chk
 %mem=1000MB
 %NProcShared=8
 Will use up to    8 processors via shared memory.
 ---------------
 # HF/6-31G* Opt
 ---------------
 1/18=20,19=15,38=1/1,3;
 2/9=110,12=2,17=6,18=5,40=1/2;
 3/5=1,6=6,7=1,11=9,16=1,25=1,30=1,71=1/1,2,3;
 4//1;
 5/5=2,38=5/2;
 6/7=2,8=2,9=2,10=2,28=1/1;
 7//1,2,3,16;
 1/18=20,19=15/3(2);
 2/9=110/2;
 99//99;
 2/9=110/2;
 3/5=1,6=6,7=1,11=9,16=1,25=1,30=1,71=1/1,2,3;
 4/5=5,16=3,69=1/1;
 5/5=2,38=5/2;
 7//1,2,3,16;
 1/18=20,19=15/3(-5);
 2/9=110/2;
 6/7=2,8=2,9=2,10=2,19=2,28=1/1;
 99/9=1/99;


 Symbolic Z-matrix:
 Charge =  0 Multiplicity = 1
 C                    -0.69934   2.34968   0. 
 F                     0.37066   2.34968   0. 
 F                    -1.056     3.12476   0.64571 
 F                    -1.05601   1.40294   0.34838 
 F                    -1.05601   2.52133  -0.99409 
 

 GradGradGradGradGradGradGradGradGradGradGradGradGradGradGradGradGradGrad
 Berny optimization.
 Initialization pass.
                           ----------------------------
                           !    Initial Parameters    !
                           ! (Angstroms and Degrees)  !
 --------------------------                            --------------------------
 ! Name  Definition              Value          Derivative Info.                !
 --------------------------------------------------------------------------------
 ! R1    R(1,2)                  1.07           estimate D2E/DX2                !
 ! R2    R(1,3)                  1.07           estimate D2E/DX2                !
 ! R3    R(1,4)                  1.07           estimate D2E/DX2                !
 ! R4    R(1,5)                  1.07           estimate D2E/DX2                !
 ! A1    A(2,1,3)              109.4709         estimate D2E/DX2                !
 ! A2    A(2,1,4)              109.4714         estimate D2E/DX2                !
 ! A3    A(2,1,5)              109.4715         estimate D2E/DX2                !
 ! A4    A(3,1,4)              109.4714         estimate D2E/DX2                !
 ! A5    A(3,1,5)              109.4717         estimate D2E/DX2                !
 ! A6    A(4,1,5)              109.4704         estimate D2E/DX2                !
 ! D1    D(2,1,4,3)            119.9998         estimate D2E/DX2                !
 ! D2    D(2,1,5,3)           -120.0001         estimate D2E/DX2                !
 ! D3    D(2,1,5,4)            119.9999         estimate D2E/DX2                !
 ! D4    D(3,1,5,4)           -120.0001         estimate D2E/DX2                !
 --------------------------------------------------------------------------------
 Trust Radius=3.00D-01 FncErr=1.00D-07 GrdErr=1.00D-07
 Number of steps in this run=     24 maximum allowed number of steps=    100.
 GradGradGradGradGradGradGradGradGradGradGradGradGradGradGradGradGradGrad

                          Input orientation:                          
 ---------------------------------------------------------------------
 Center     Atomic      Atomic             Coordinates (Angstroms)
 Number     Number       Type             X           Y           Z
 ---------------------------------------------------------------------
      1          6           0       -0.699340    2.349680    0.000000
      2          9           0        0.370660    2.349680    0.000000
      3          9           0       -1.056000    3.124760    0.645710
      4          9           0       -1.056010    1.402940    0.348380
      5          9           0       -1.056010    2.521330   -0.994090
 ---------------------------------------------------------------------
                    Distance matrix (angstroms):
                    1          2          3          4          5
     1  C    0.000000
     2  F    1.070000   0.000000
     3  F    1.069998   1.747298   0.000000
     4  F    1.069999   1.747304   1.747303   0.000000
     5  F    1.069996   1.747302   1.747304   1.747290   0.000000
 Stoichiometry    CF4
 Framework group  C1[X(CF4)]
 Deg. of freedom     9
 Full point group                 C1      NOp   1
 Largest Abelian subgroup         C1      NOp   1
 Largest concise Abelian subgroup C1      NOp   1
                         Standard orientation:                         
 ---------------------------------------------------------------------
 Center     Atomic      Atomic             Coordinates (Angstroms)
 Number     Number       Type             X           Y           Z
 ---------------------------------------------------------------------
      1          6           0        0.000001   -0.000001    0.000001
      2          9           0        0.604432    0.869588   -0.152901
      3          9           0        0.630796   -0.854490    0.129782
      4          9           0       -0.632018   -0.149102   -0.850422
      5          9           0       -0.603211    0.134005    0.873540
 ---------------------------------------------------------------------
 Rotational constants (GHZ):      8.7130105      8.7129330      8.7128919
 Standard basis: 6-31G(d) (6D, 7F)
 There are    75 symmetry adapted cartesian basis functions of A   symmetry.
 There are    75 symmetry adapted basis functions of A   symmetry.
    75 basis functions,   140 primitive gaussians,    75 cartesian basis functions
    21 alpha electrons       21 beta electrons
       nuclear repulsion energy       254.0118338348 Hartrees.
 NAtoms=    5 NActive=    5 NUniq=    5 SFac= 1.00D+00 NAtFMM=   60 NAOKFM=F Big=F
 Integral buffers will be    131072 words long.
 Raffenetti 1 integral format.
 Two-electron integral symmetry is turned on.
 One-electron integrals computed using PRISM.
 NBasis=    75 RedAO= T EigKep=  1.38D-03  NBF=    75
 NBsUse=    75 1.00D-06 EigRej= -1.00D+00 NBFU=    75
 ExpMin= 1.69D-01 ExpMax= 7.00D+03 ExpMxC= 1.05D+03 IAcc=1 IRadAn=         1 AccDes= 0.00D+00
 Harris functional with IExCor=  205 and IRadAn=       1 diagonalized for initial guess.
 HarFok:  IExCor=  205 AccDes= 0.00D+00 IRadAn=         1 IDoV= 1 UseB2=F ITyADJ=14
 ICtDFT=  3500011 ScaDFX=  1.000000  1.000000  1.000000  1.000000
 FoFCou: FMM=F IPFlag=           0 FMFlag=      100000 FMFlg1=           0
         NFxFlg=           0 DoJE=T BraDBF=F KetDBF=T FulRan=T
         wScrn=  0.000000 ICntrl=     500 IOpCl=  0 I1Cent=   200000004 NGrid=           0
         NMat0=    1 NMatS0=      1 NMatT0=    0 NMatD0=    1 NMtDS0=    0 NMtDT0=    0
 Petite list used in FoFCou.
 Keep R1 ints in memory in canonical form, NReq=4942340.
 Requested convergence on RMS density matrix=1.00D-08 within 128 cycles.
 Requested convergence on MAX density matrix=1.00D-06.
 Requested convergence on             energy=1.00D-06.
 No special actions if energy rises.
 SCF Done:  E(RHF) =  -435.166177500     A.U. after    9 cycles
            NFock=  9  Conv=0.16D-08     -V/T= 1.9892

 **********************************************************************

            Population analysis using the SCF density.

 **********************************************************************

 Orbital symmetries:
       Occupied  (A) (A) (A) (A) (A) (A) (A) (A) (A) (A) (A) (A)
                 (A) (A) (A) (A) (A) (A) (A) (A) (A)
       Virtual   (A) (A) (A) (A) (A) (A) (A) (A) (A) (A) (A) (A)
                 (A) (A) (A) (A) (A) (A) (A) (A) (A) (A) (A) (A)
                 (A) (A) (A) (A) (A) (A) (A) (A) (A) (A) (A) (A)
                 (A) (A) (A) (A) (A) (A) (A) (A) (A) (A) (A) (A)
                 (A) (A) (A) (A) (A) (A)
 The electronic state is 1-A.
 Alpha  occ. eigenvalues --  -26.32674 -26.32673 -26.32673 -26.32662 -11.50357
 Alpha  occ. eigenvalues --   -2.04858  -1.78452  -1.78452  -1.78452  -1.01467
 Alpha  occ. eigenvalues --   -0.98839  -0.98839  -0.98839  -0.82102  -0.82101
 Alpha  occ. eigenvalues --   -0.72816  -0.72816  -0.72816  -0.63437  -0.63437
 Alpha  occ. eigenvalues --   -0.63437
 Alpha virt. eigenvalues --    0.45190   0.55582   0.55582   0.55582   0.90056
 Alpha virt. eigenvalues --    0.90056   0.90057   1.21475   1.31294   1.31294
 Alpha virt. eigenvalues --    1.31294   1.36723   1.36723   1.51900   1.62005
 Alpha virt. eigenvalues --    1.62005   1.64430   1.64430   1.64430   1.65201
 Alpha virt. eigenvalues --    1.65202   1.65202   1.84210   1.84210   1.84210
 Alpha virt. eigenvalues --    2.19485   2.19486   2.19487   2.20270   2.20270
 Alpha virt. eigenvalues --    2.20270   2.31622   2.31623   2.43099   2.83115
 Alpha virt. eigenvalues --    2.83116   2.83116   2.97390   2.97391   2.97392
 Alpha virt. eigenvalues --    3.50609   3.50609   3.67406   3.67408   3.67408
 Alpha virt. eigenvalues --    3.90335   3.90335   3.90335   4.19890   4.88346
 Alpha virt. eigenvalues --    5.58614   5.58615   5.58616   7.06238
          Condensed to atoms (all electrons):
               1          2          3          4          5
     1  C    3.666898   0.507966   0.507967   0.507966   0.507968
     2  F    0.507966   8.932536  -0.121733  -0.121729  -0.121729
     3  F    0.507967  -0.121733   8.932531  -0.121729  -0.121728
     4  F    0.507966  -0.121729  -0.121729   8.932539  -0.121737
     5  F    0.507968  -0.121729  -0.121728  -0.121737   8.932530
 Mulliken charges:
               1
     1  C    0.301234
     2  F   -0.075311
     3  F   -0.075308
     4  F   -0.075310
     5  F   -0.075305
 Sum of Mulliken charges =   0.00000
 Mulliken charges with hydrogens summed into heavy atoms:
               1
     1  C    0.301234
     2  F   -0.075311
     3  F   -0.075308
     4  F   -0.075310
     5  F   -0.075305
 Electronic spatial extent (au):  <R**2>=            199.6582
 Charge=              0.0000 electrons
 Dipole moment (field-independent basis, Debye):
    X=              0.0000    Y=              0.0000    Z=              0.0000  Tot=              0.0000
 Quadrupole moment (field-independent basis, Debye-Ang):
   XX=            -23.5256   YY=            -23.5256   ZZ=            -23.5256
   XY=              0.0000   XZ=              0.0000   YZ=              0.0000
 Traceless Quadrupole moment (field-independent basis, Debye-Ang):
   XX=              0.0000   YY=              0.0000   ZZ=              0.0000
   XY=              0.0000   XZ=              0.0000   YZ=              0.0000
 Octapole moment (field-independent basis, Debye-Ang**2):
  XXX=              0.0001  YYY=             -0.0364  ZZZ=             -0.0557  XYY=             -0.9921
  XXY=              0.0368  XXZ=              0.0290  XZZ=              0.9919  YZZ=             -0.0004
  YYZ=              0.0268  XYZ=              0.3346
 Hexadecapole moment (field-independent basis, Debye-Ang**3):
 XXXX=            -54.6957 YYYY=            -54.8534 ZZZZ=            -54.8531 XXXY=              0.0043
 XXXZ=             -0.0066 YYYX=             -0.0014 YYYZ=              0.0536 ZZZX=              0.0043
 ZZZY=             -0.0534 XXYY=            -18.3494 XXZZ=            -18.3492 YYZZ=            -18.1907
 XXYZ=             -0.0002 YYXZ=              0.0023 ZZXY=             -0.0029
 N-N= 2.540118338348D+02 E-N=-1.550413231775D+03  KE= 4.399012001239D+02
 Calling FoFJK, ICntrl=      2127 FMM=F ISym2X=0 I1Cent= 0 IOpClX= 0 NMat=1 NMatS=1 NMatT=0.
 ***** Axes restored to original set *****
 -------------------------------------------------------------------
 Center     Atomic                   Forces (Hartrees/Bohr)
 Number     Number              X              Y              Z
 -------------------------------------------------------------------
      1        6           0.000006882   -0.000003521    0.000008219
      2        9           0.708740921   -0.000002177   -0.000001807
      3        9          -0.236248116    0.513397613    0.427703668
      4        9          -0.236247225   -0.627100465    0.230767392
      5        9          -0.236252462    0.113708550   -0.658477472
 -------------------------------------------------------------------
 Cartesian Forces:  Max     0.708740921 RMS     0.365995736

 GradGradGradGradGradGradGradGradGradGradGradGradGradGradGradGradGradGrad
 Berny optimization.
 FormGI is forming the generalized inverse of G from B-inverse, IUseBI=4.
 Internal  Forces:  Max     0.708757674 RMS     0.378841578
 Search for a local minimum.
 Step number   1 out of a maximum of   24
 All quantities printed in internal units (Hartrees-Bohrs-Radians)
 Mixed Optimization -- RFO/linear search
 Second derivative matrix not updated -- first step.
 The second derivative matrix:
                          R1        R2        R3        R4        A1
           R1           2.10776
           R2           0.00000   2.10778
           R3           0.00000   0.00000   2.10776
           R4           0.00000   0.00000   0.00000   2.10780
           A1           0.00000   0.00000   0.00000   0.00000   0.25000
           A2           0.00000   0.00000   0.00000   0.00000   0.00000
           A3           0.00000   0.00000   0.00000   0.00000   0.00000
           A4           0.00000   0.00000   0.00000   0.00000   0.00000
           A5           0.00000   0.00000   0.00000   0.00000   0.00000
           A6           0.00000   0.00000   0.00000   0.00000   0.00000
           D1           0.00000   0.00000   0.00000   0.00000   0.00000
           D2           0.00000   0.00000   0.00000   0.00000   0.00000
           D3           0.00000   0.00000   0.00000   0.00000   0.00000
           D4           0.00000   0.00000   0.00000   0.00000   0.00000
                          A2        A3        A4        A5        A6
           A2           0.25000
           A3           0.00000   0.25000
           A4           0.00000   0.00000   0.25000
           A5           0.00000   0.00000   0.00000   0.25000
           A6           0.00000   0.00000   0.00000   0.00000   0.25000
           D1           0.00000   0.00000   0.00000   0.00000   0.00000
           D2           0.00000   0.00000   0.00000   0.00000   0.00000
           D3           0.00000   0.00000   0.00000   0.00000   0.00000
           D4           0.00000   0.00000   0.00000   0.00000   0.00000
                          D1        D2        D3        D4
           D1           0.05792
           D2           0.00000   0.05792
           D3           0.00000   0.00000   0.05792
           D4           0.00000   0.00000   0.00000   0.05792
 ITU=  0
     Eigenvalues ---    0.11702   0.12473   0.16036   0.25000   0.25000
     Eigenvalues ---    2.10776   2.10776   2.10778   2.10780
 RFO step:  Lambda=-7.12456576D-01 EMin= 1.17024391D-01
 Linear search not attempted -- first point.
 Maximum step size (   0.300) exceeded in Quadratic search.
    -- Step size scaled by   0.597
 Iteration  1 RMS(Cart)=  0.08017837 RMS(Int)=  0.00000019
 Iteration  2 RMS(Cart)=  0.00000023 RMS(Int)=  0.00000000
 Variable       Old X    -DE/DX   Delta X   Delta X   Delta X     New X
                                 (Linear)    (Quad)   (Total)
    R1        2.02201   0.70874   0.00000   0.15000   0.15000   2.17201
    R2        2.02200   0.70875   0.00000   0.15000   0.15000   2.17200
    R3        2.02201   0.70875   0.00000   0.15000   0.15000   2.17201
    R4        2.02200   0.70876   0.00000   0.15000   0.15000   2.17200
    A1        1.91063   0.00000   0.00000   0.00000   0.00000   1.91063
    A2        1.91064   0.00000   0.00000   0.00000   0.00000   1.91063
    A3        1.91064   0.00000   0.00000   0.00000   0.00000   1.91064
    A4        1.91064   0.00000   0.00000   0.00000   0.00000   1.91064
    A5        1.91064  -0.00001   0.00000   0.00000   0.00000   1.91064
    A6        1.91062   0.00001   0.00000   0.00001   0.00001   1.91063
    D1        2.09439   0.00000   0.00000   0.00000   0.00000   2.09439
    D2       -2.09440   0.00000   0.00000   0.00000   0.00000  -2.09440
    D3        2.09439   0.00000   0.00000   0.00000   0.00000   2.09439
    D4       -2.09440   0.00000   0.00000   0.00000   0.00000  -2.09440
         Item               Value     Threshold  Converged?
 Maximum Force            0.708758     0.000450     NO 
 RMS     Force            0.378842     0.000300     NO 
 Maximum Displacement     0.149999     0.001800     NO 
 RMS     Displacement     0.080178     0.001200     NO 
 Predicted change in Energy=-3.303987D-01
 GradGradGradGradGradGradGradGradGradGradGradGradGradGradGradGradGradGrad

                          Input orientation:                          
 ---------------------------------------------------------------------
 Center     Atomic      Atomic             Coordinates (Angstroms)
 Number     Number       Type             X           Y           Z
 ---------------------------------------------------------------------
      1          6           0       -0.699340    2.349679    0.000000
      2          9           0        0.450036    2.349678   -0.000001
      3          9           0       -1.082460    3.182258    0.693610
      4          9           0       -1.082467    1.332707    0.374228
      5          9           0       -1.082468    2.534068   -1.067836
 ---------------------------------------------------------------------
                    Distance matrix (angstroms):
                    1          2          3          4          5
     1  C    0.000000
     2  F    1.149376   0.000000
     3  F    1.149375   1.876920   0.000000
     4  F    1.149376   1.876924   1.876924   0.000000
     5  F    1.149373   1.876923   1.876924   1.876916   0.000000
 Stoichiometry    CF4
 Framework group  C1[X(CF4)]
 Deg. of freedom     9
 Full point group                 C1      NOp   1
 Largest Abelian subgroup         C1      NOp   1
 Largest concise Abelian subgroup C1      NOp   1
                         Standard orientation:                         
 ---------------------------------------------------------------------
 Center     Atomic      Atomic             Coordinates (Angstroms)
 Number     Number       Type             X           Y           Z
 ---------------------------------------------------------------------
      1          6           0        0.000000   -0.000001    0.000001
      2          9           0        0.665185    0.919413   -0.182409
      3          9           0        0.661095   -0.930538    0.134598
      4          9           0       -0.697791   -0.152759   -0.900453
      5          9           0       -0.628490    0.163884    0.948263
 ---------------------------------------------------------------------
 Rotational constants (GHZ):      7.5510858      7.5510506      7.5510354
 Standard basis: 6-31G(d) (6D, 7F)
 There are    75 symmetry adapted cartesian basis functions of A   symmetry.
 There are    75 symmetry adapted basis functions of A   symmetry.
    75 basis functions,   140 primitive gaussians,    75 cartesian basis functions
    21 alpha electrons       21 beta electrons
       nuclear repulsion energy       236.4696143288 Hartrees.
 NAtoms=    5 NActive=    5 NUniq=    5 SFac= 1.00D+00 NAtFMM=   60 NAOKFM=F Big=F
 Integral buffers will be    131072 words long.
 Raffenetti 1 integral format.
 Two-electron integral symmetry is turned on.
 One-electron integrals computed using PRISM.
 NBasis=    75 RedAO= T EigKep=  1.42D-03  NBF=    75
 NBsUse=    75 1.00D-06 EigRej= -1.00D+00 NBFU=    75
 Initial guess from the checkpoint file:  "cf4.chk"
 B after Tr=     0.000000    0.000000    0.000000
         Rot=    0.999904    0.003663   -0.008653    0.010205 Ang=   1.59 deg.
 ExpMin= 1.69D-01 ExpMax= 7.00D+03 ExpMxC= 1.05D+03 IAcc=1 IRadAn=         1 AccDes= 0.00D+00
 Harris functional with IExCor=  205 and IRadAn=       1 diagonalized for initial guess.
 HarFok:  IExCor=  205 AccDes= 0.00D+00 IRadAn=         1 IDoV= 1 UseB2=F ITyADJ=14
 ICtDFT=  3500011 ScaDFX=  1.000000  1.000000  1.000000  1.000000
 FoFCou: FMM=F IPFlag=           0 FMFlag=      100000 FMFlg1=           0
         NFxFlg=           0 DoJE=T BraDBF=F KetDBF=T FulRan=T
         wScrn=  0.000000 ICntrl=     500 IOpCl=  0 I1Cent=   200000004 NGrid=           0
         NMat0=    1 NMatS0=      1 NMatT0=    0 NMatD0=    1 NMtDS0=    0 NMtDT0=    0
 Petite list used in FoFCou.
 Keep R1 ints in memory in canonical form, NReq=4941984.
 Requested convergence on RMS density matrix=1.00D-08 within 128 cycles.
 Requested convergence on MAX density matrix=1.00D-06.
 Requested convergence on             energy=1.00D-06.
 No special actions if energy rises.
 SCF Done:  E(RHF) =  -435.475157073     A.U. after   10 cycles
            NFock= 10  Conv=0.13D-08     -V/T= 1.9952
 Calling FoFJK, ICntrl=      2127 FMM=F ISym2X=0 I1Cent= 0 IOpClX= 0 NMat=1 NMatS=1 NMatT=0.
 ***** Axes restored to original set *****
 -------------------------------------------------------------------
 Center     Atomic                   Forces (Hartrees/Bohr)
 Number     Number              X              Y              Z
 -------------------------------------------------------------------
      1        6           0.000003385   -0.000003392    0.000004042
      2        9           0.349503985   -0.000001054   -0.000001051
      3        9          -0.116502273    0.253174160    0.210915368
      4        9          -0.116501153   -0.309243117    0.113798573
      5        9          -0.116503944    0.056073403   -0.324716933
 -------------------------------------------------------------------
 Cartesian Forces:  Max     0.349503985 RMS     0.180484659

 GradGradGradGradGradGradGradGradGradGradGradGradGradGradGradGradGradGrad
 Berny optimization.
 Using GEDIIS/GDIIS optimizer.
 FormGI is forming the generalized inverse of G from B-inverse, IUseBI=4.
 Internal  Forces:  Max     0.349511776 RMS     0.186819371
 Search for a local minimum.
 Step number   2 out of a maximum of   24
 All quantities printed in internal units (Hartrees-Bohrs-Radians)
 Mixed Optimization -- RFO/linear search
 Update second derivatives using D2CorX and points    1    2
 DE= -3.09D-01 DEPred=-3.30D-01 R= 9.35D-01
 TightC=F SS=  1.41D+00  RLast= 3.00D-01 DXNew= 5.0454D-01 9.0000D-01
 Trust test= 9.35D-01 RLast= 3.00D-01 DXMaxT set to 5.05D-01
 The second derivative matrix:
                          R1        R2        R3        R4        A1
           R1           2.17955
           R2           0.07179   2.17956
           R3           0.07179   0.07179   2.17956
           R4           0.07179   0.07179   0.07179   2.17959
           A1           0.00000   0.00000   0.00000   0.00000   0.25000
           A2           0.00000   0.00000   0.00000   0.00000   0.00000
           A3           0.00000   0.00000   0.00000   0.00000   0.00000
           A4           0.00000   0.00000   0.00000   0.00000   0.00000
           A5           0.00000   0.00000   0.00000   0.00000   0.00000
           A6           0.00001   0.00001   0.00001   0.00001   0.00000
           D1           0.00000   0.00000   0.00000   0.00000   0.00000
           D2           0.00000   0.00000   0.00000   0.00000   0.00000
           D3           0.00000   0.00000   0.00000   0.00000   0.00000
           D4           0.00000   0.00000   0.00000   0.00000   0.00000
                          A2        A3        A4        A5        A6
           A2           0.25000
           A3           0.00000   0.25000
           A4           0.00000   0.00000   0.25000
           A5           0.00000   0.00000   0.00000   0.25000
           A6           0.00000   0.00000   0.00000   0.00000   0.25000
           D1           0.00000   0.00000   0.00000   0.00000   0.00000
           D2           0.00000   0.00000   0.00000   0.00000   0.00000
           D3           0.00000   0.00000   0.00000   0.00000   0.00000
           D4           0.00000   0.00000   0.00000   0.00000   0.00000
                          D1        D2        D3        D4
           D1           0.05792
           D2           0.00000   0.05792
           D3           0.00000   0.00000   0.05792
           D4           0.00000   0.00000   0.00000   0.05792
 ITU=  1  0
 Use linear search instead of GDIIS.
 Linear search step of   0.600 exceeds DXMaxT=   0.505 but not scaled.
 Quartic linear search produced a step of  2.00000.
 Iteration  1 RMS(Cart)=  0.10690450 RMS(Int)=  0.05345225
 Iteration  2 RMS(Cart)=  0.05345225 RMS(Int)=  0.00000003
 Iteration  3 RMS(Cart)=  0.00000004 RMS(Int)=  0.00000000
 Variable       Old X    -DE/DX   Delta X   Delta X   Delta X     New X
                                 (Linear)    (Quad)   (Total)
    R1        2.17201   0.34950   0.30000   0.00000   0.30000   2.47201
    R2        2.17200   0.34951   0.30000   0.00000   0.30000   2.47200
    R3        2.17201   0.34951   0.30000   0.00000   0.30000   2.47201
    R4        2.17200   0.34951   0.30000   0.00000   0.30000   2.47200
    A1        1.91063   0.00000   0.00000   0.00000   0.00000   1.91063
    A2        1.91063   0.00000  -0.00001   0.00000  -0.00001   1.91063
    A3        1.91064   0.00000   0.00000   0.00000   0.00000   1.91063
    A4        1.91064   0.00000   0.00000   0.00000   0.00000   1.91063
    A5        1.91064   0.00000  -0.00001   0.00000  -0.00001   1.91063
    A6        1.91063   0.00000   0.00002   0.00000   0.00002   1.91064
    D1        2.09439   0.00000   0.00000   0.00000   0.00000   2.09439
    D2       -2.09440   0.00000   0.00000   0.00000   0.00000  -2.09439
    D3        2.09439   0.00000   0.00000   0.00000   0.00000   2.09439
    D4       -2.09440   0.00000   0.00000   0.00000   0.00000  -2.09440
         Item               Value     Threshold  Converged?
 Maximum Force            0.349512     0.000450     NO 
 RMS     Force            0.186819     0.000300     NO 
 Maximum Displacement     0.299997     0.001800     NO 
 RMS     Displacement     0.160357     0.001200     NO 
 Predicted change in Energy=-1.168034D-02
 GradGradGradGradGradGradGradGradGradGradGradGradGradGradGradGradGradGrad

                          Input orientation:                          
 ---------------------------------------------------------------------
 Center     Atomic      Atomic             Coordinates (Angstroms)
 Number     Number       Type             X           Y           Z
 ---------------------------------------------------------------------
      1          6           0       -0.699341    2.349678   -0.000002
      2          9           0        0.608788    2.349674   -0.000004
      3          9           0       -1.135381    3.297252    0.789409
      4          9           0       -1.135381    1.192241    0.425925
      5          9           0       -1.135384    2.559545   -1.215328
 ---------------------------------------------------------------------
                    Distance matrix (angstroms):
                    1          2          3          4          5
     1  C    0.000000
     2  F    1.308129   0.000000
     3  F    1.308128   2.136165   0.000000
     4  F    1.308130   2.136163   2.136163   0.000000
     5  F    1.308127   2.136163   2.136161   2.136172   0.000000
 Stoichiometry    CF4
 Framework group  C1[X(CF4)]
 Deg. of freedom     9
 Full point group                 C1      NOp   1
 Largest Abelian subgroup         C1      NOp   1
 Largest concise Abelian subgroup C1      NOp   1
                         Standard orientation:                         
 ---------------------------------------------------------------------
 Center     Atomic      Atomic             Coordinates (Angstroms)
 Number     Number       Type             X           Y           Z
 ---------------------------------------------------------------------
      1          6           0        0.000001    0.000000    0.000002
      2          9           0       -0.133825    1.118705   -0.664670
      3          9           0        0.188318   -0.985824   -0.838978
      4          9           0       -1.082414   -0.223638    0.699692
      5          9           0        1.027921    0.090757    0.803955
 ---------------------------------------------------------------------
 Rotational constants (GHZ):      5.8295118      5.8294930      5.8294699
 Standard basis: 6-31G(d) (6D, 7F)
 There are    75 symmetry adapted cartesian basis functions of A   symmetry.
 There are    75 symmetry adapted basis functions of A   symmetry.
    75 basis functions,   140 primitive gaussians,    75 cartesian basis functions
    21 alpha electrons       21 beta electrons
       nuclear repulsion energy       207.7718947778 Hartrees.
 NAtoms=    5 NActive=    5 NUniq=    5 SFac= 1.00D+00 NAtFMM=   60 NAOKFM=F Big=F
 Integral buffers will be    131072 words long.
 Raffenetti 1 integral format.
 Two-electron integral symmetry is turned on.
 One-electron integrals computed using PRISM.
 NBasis=    75 RedAO= T EigKep=  1.78D-03  NBF=    75
 NBsUse=    75 1.00D-06 EigRej= -1.00D+00 NBFU=    75
 Initial guess from the checkpoint file:  "cf4.chk"
 B after Tr=     0.000000    0.000000    0.000000
         Rot=    0.731006   -0.041588   -0.680583   -0.026597 Ang= -86.06 deg.
 ExpMin= 1.69D-01 ExpMax= 7.00D+03 ExpMxC= 1.05D+03 IAcc=1 IRadAn=         1 AccDes= 0.00D+00
 Harris functional with IExCor=  205 and IRadAn=       1 diagonalized for initial guess.
 HarFok:  IExCor=  205 AccDes= 0.00D+00 IRadAn=         1 IDoV= 1 UseB2=F ITyADJ=14
 ICtDFT=  3500011 ScaDFX=  1.000000  1.000000  1.000000  1.000000
 FoFCou: FMM=F IPFlag=           0 FMFlag=      100000 FMFlg1=           0
         NFxFlg=           0 DoJE=T BraDBF=F KetDBF=T FulRan=T
         wScrn=  0.000000 ICntrl=     500 IOpCl=  0 I1Cent=   200000004 NGrid=           0
         NMat0=    1 NMatS0=      1 NMatT0=    0 NMatD0=    1 NMtDS0=    0 NMtDT0=    0
 Petite list used in FoFCou.
 Keep R1 ints in memory in canonical form, NReq=4941522.
 Requested convergence on RMS density matrix=1.00D-08 within 128 cycles.
 Requested convergence on MAX density matrix=1.00D-06.
 Requested convergence on             energy=1.00D-06.
 No special actions if energy rises.
 SCF Done:  E(RHF) =  -435.645000883     A.U. after   10 cycles
            NFock= 10  Conv=0.19D-08     -V/T= 2.0023
 Calling FoFJK, ICntrl=      2127 FMM=F ISym2X=0 I1Cent= 0 IOpClX= 0 NMat=1 NMatS=1 NMatT=0.
 ***** Axes restored to original set *****
 -------------------------------------------------------------------
 Center     Atomic                   Forces (Hartrees/Bohr)
 Number     Number              X              Y              Z
 -------------------------------------------------------------------
      1        6           0.000001809   -0.000000546    0.000002033
      2        9          -0.008527699    0.000000315   -0.000000068
      3        9           0.002842319   -0.006176321   -0.005145322
      4        9           0.002841957    0.007546181   -0.002778584
      5        9           0.002841613   -0.001369629    0.007921941
 -------------------------------------------------------------------
 Cartesian Forces:  Max     0.008527699 RMS     0.004403571

 GradGradGradGradGradGradGradGradGradGradGradGradGradGradGradGradGradGrad
 Berny optimization.
 Using GEDIIS/GDIIS optimizer.
 FormGI is forming the generalized inverse of G from B-inverse, IUseBI=4.
 Internal  Forces:  Max     0.008528898 RMS     0.004558129
 Search for a local minimum.
 Step number   3 out of a maximum of   24
 All quantities printed in internal units (Hartrees-Bohrs-Radians)
 Mixed Optimization -- RFO/linear search
 Update second derivatives using D2CorX and points    2    3
 The second derivative matrix:
                          R1        R2        R3        R4        A1
           R1           1.87918
           R2          -0.22858   1.87920
           R3          -0.22858  -0.22858   1.87919
           R4          -0.22858  -0.22859  -0.22859   1.87921
           A1           0.00000   0.00000   0.00000   0.00000   0.25000
           A2           0.00000   0.00000   0.00000   0.00000   0.00000
           A3           0.00000   0.00000   0.00000   0.00000   0.00000
           A4           0.00000   0.00000   0.00000   0.00000   0.00000
           A5           0.00000   0.00000   0.00000   0.00000   0.00000
           A6           0.00000   0.00000   0.00000   0.00000   0.00000
           D1           0.00000   0.00000   0.00000   0.00000   0.00000
           D2           0.00000   0.00000   0.00000   0.00000   0.00000
           D3           0.00000   0.00000   0.00000   0.00000   0.00000
           D4           0.00000   0.00000   0.00000   0.00000   0.00000
                          A2        A3        A4        A5        A6
           A2           0.25000
           A3           0.00000   0.25000
           A4           0.00000   0.00000   0.25000
           A5           0.00000   0.00000   0.00000   0.25000
           A6           0.00000   0.00000   0.00000   0.00000   0.25000
           D1           0.00000   0.00000   0.00000   0.00000   0.00000
           D2           0.00000   0.00000   0.00000   0.00000   0.00000
           D3           0.00000   0.00000   0.00000   0.00000   0.00000
           D4           0.00000   0.00000   0.00000   0.00000   0.00000
                          D1        D2        D3        D4
           D1           0.05792
           D2           0.00000   0.05792
           D3           0.00000   0.00000   0.05792
           D4           0.00000   0.00000   0.00000   0.05792
 ITU=  0  1  0
 Use linear search instead of GDIIS.
     Eigenvalues ---    0.11702   0.12473   0.16037   0.25000   0.25000
     Eigenvalues ---    1.19345   2.10776   2.10777   2.10780
 RFO step:  Lambda= 0.00000000D+00 EMin= 1.17024477D-01
 Quartic linear search produced a step of -0.04177.
 Iteration  1 RMS(Cart)=  0.00669789 RMS(Int)=  0.00000002
 Iteration  2 RMS(Cart)=  0.00000003 RMS(Int)=  0.00000000
 Variable       Old X    -DE/DX   Delta X   Delta X   Delta X     New X
                                 (Linear)    (Quad)   (Total)
    R1        2.47201  -0.00853  -0.01253   0.00000  -0.01253   2.45947
    R2        2.47200  -0.00853  -0.01253   0.00000  -0.01253   2.45947
    R3        2.47201  -0.00853  -0.01253   0.00000  -0.01253   2.45948
    R4        2.47200  -0.00853  -0.01253   0.00000  -0.01253   2.45947
    A1        1.91063   0.00000   0.00000   0.00000   0.00000   1.91063
    A2        1.91063   0.00000   0.00000   0.00000   0.00000   1.91063
    A3        1.91063   0.00000   0.00000   0.00000   0.00000   1.91063
    A4        1.91063   0.00000   0.00000   0.00000   0.00000   1.91063
    A5        1.91063   0.00000   0.00000   0.00000   0.00000   1.91064
    A6        1.91064   0.00000   0.00000  -0.00001  -0.00001   1.91063
    D1        2.09439   0.00000   0.00000   0.00000   0.00000   2.09440
    D2       -2.09439   0.00000   0.00000   0.00000   0.00000  -2.09440
    D3        2.09439   0.00000   0.00000   0.00000   0.00000   2.09439
    D4       -2.09440   0.00000   0.00000   0.00000   0.00000  -2.09439
         Item               Value     Threshold  Converged?
 Maximum Force            0.008529     0.000450     NO 
 RMS     Force            0.004558     0.000300     NO 
 Maximum Displacement     0.012528     0.001800     NO 
 RMS     Displacement     0.006698     0.001200     NO 
 Predicted change in Energy=-5.263715D-05
 GradGradGradGradGradGradGradGradGradGradGradGradGradGradGradGradGradGrad

                          Input orientation:                          
 ---------------------------------------------------------------------
 Center     Atomic      Atomic             Coordinates (Angstroms)
 Number     Number       Type             X           Y           Z
 ---------------------------------------------------------------------
      1          6           0       -0.699340    2.349679    0.000000
      2          9           0        0.602158    2.349677   -0.000003
      3          9           0       -1.133169    3.292451    0.785410
      4          9           0       -1.133174    1.198109    0.423759
      5          9           0       -1.133175    2.558474   -1.209166
 ---------------------------------------------------------------------
                    Distance matrix (angstroms):
                    1          2          3          4          5
     1  C    0.000000
     2  F    1.301498   0.000000
     3  F    1.301497   2.125337   0.000000
     4  F    1.301498   2.125338   2.125338   0.000000
     5  F    1.301496   2.125337   2.125337   2.125332   0.000000
 Stoichiometry    CF4
 Framework group  C1[X(CF4)]
 Deg. of freedom     9
 Full point group                 C1      NOp   1
 Largest Abelian subgroup         C1      NOp   1
 Largest concise Abelian subgroup C1      NOp   1
                         Standard orientation:                         
 ---------------------------------------------------------------------
 Center     Atomic      Atomic             Coordinates (Angstroms)
 Number     Number       Type             X           Y           Z
 ---------------------------------------------------------------------
      1          6           0        0.000001   -0.000001    0.000000
      2          9           0        0.820475    0.997163   -0.162434
      3          9           0        0.667768   -1.117098   -0.008683
      4          9           0       -0.870625   -0.007467   -0.967394
      5          9           0       -0.617619    0.127403    1.138511
 ---------------------------------------------------------------------
 Rotational constants (GHZ):      5.8890536      5.8890444      5.8890322
 Standard basis: 6-31G(d) (6D, 7F)
 There are    75 symmetry adapted cartesian basis functions of A   symmetry.
 There are    75 symmetry adapted basis functions of A   symmetry.
    75 basis functions,   140 primitive gaussians,    75 cartesian basis functions
    21 alpha electrons       21 beta electrons
       nuclear repulsion energy       208.8304564664 Hartrees.
 NAtoms=    5 NActive=    5 NUniq=    5 SFac= 1.00D+00 NAtFMM=   60 NAOKFM=F Big=F
 Integral buffers will be    131072 words long.
 Raffenetti 1 integral format.
 Two-electron integral symmetry is turned on.
 One-electron integrals computed using PRISM.
 NBasis=    75 RedAO= T EigKep=  1.75D-03  NBF=    75
 NBsUse=    75 1.00D-06 EigRej= -1.00D+00 NBFU=    75
 Initial guess from the checkpoint file:  "cf4.chk"
 B after Tr=     0.000000    0.000000    0.000000
         Rot=    0.755095    0.032834    0.648860    0.087946 Ang=  81.93 deg.
 Keep R1 ints in memory in canonical form, NReq=4941522.
 Requested convergence on RMS density matrix=1.00D-08 within 128 cycles.
 Requested convergence on MAX density matrix=1.00D-06.
 Requested convergence on             energy=1.00D-06.
 No special actions if energy rises.
 SCF Done:  E(RHF) =  -435.645206870     A.U. after    8 cycles
            NFock=  8  Conv=0.19D-08     -V/T= 2.0021
 Calling FoFJK, ICntrl=      2127 FMM=F ISym2X=0 I1Cent= 0 IOpClX= 0 NMat=1 NMatS=1 NMatT=0.
 ***** Axes restored to original set *****
 -------------------------------------------------------------------
 Center     Atomic                   Forces (Hartrees/Bohr)
 Number     Number              X              Y              Z
 -------------------------------------------------------------------
      1        6           0.000000221   -0.000001883    0.000000235
      2        9           0.000371092    0.000000016    0.000000129
      3        9          -0.000123985    0.000269477    0.000224477
      4        9          -0.000123308   -0.000328382    0.000121786
      5        9          -0.000124020    0.000060772   -0.000346627
 -------------------------------------------------------------------
 Cartesian Forces:  Max     0.000371092 RMS     0.000192040

 GradGradGradGradGradGradGradGradGradGradGradGradGradGradGradGradGradGrad
 Berny optimization.
 Using GEDIIS/GDIIS optimizer.
 FormGI is forming the generalized inverse of G from B-inverse, IUseBI=4.
 Internal  Forces:  Max     0.000373127 RMS     0.000198780
 Search for a local minimum.
 Step number   4 out of a maximum of   24
 All quantities printed in internal units (Hartrees-Bohrs-Radians)
 Mixed Optimization -- En-DIIS/RFO-DIIS
 Update second derivatives using D2CorX and points    2    3    4
 DE= -2.06D-04 DEPred=-5.26D-05 R= 3.91D+00
 TightC=F SS=  1.41D+00  RLast= 2.51D-02 DXNew= 8.4853D-01 7.5184D-02
 Trust test= 3.91D+00 RLast= 2.51D-02 DXMaxT set to 5.05D-01
 The second derivative matrix:
                          R1        R2        R3        R4        A1
           R1           1.75834
           R2          -0.34940   1.75839
           R3          -0.34941  -0.34940   1.75835
           R4          -0.34938  -0.34937  -0.34938   1.75845
           A1           0.00001   0.00001   0.00001   0.00001   0.25000
           A2          -0.00001  -0.00001  -0.00001  -0.00001   0.00000
           A3          -0.00001  -0.00001  -0.00001  -0.00001   0.00000
           A4          -0.00001  -0.00001  -0.00001  -0.00001   0.00000
           A5          -0.00001  -0.00001  -0.00001  -0.00001   0.00000
           A6           0.00003   0.00003   0.00003   0.00003   0.00000
           D1          -0.00002  -0.00002  -0.00002  -0.00002   0.00000
           D2           0.00001   0.00001   0.00001   0.00001   0.00000
           D3           0.00001   0.00001   0.00001   0.00001   0.00000
           D4           0.00000   0.00000   0.00000   0.00000   0.00000
                          A2        A3        A4        A5        A6
           A2           0.25000
           A3           0.00000   0.25000
           A4           0.00000   0.00000   0.25000
           A5           0.00000   0.00000   0.00000   0.25000
           A6           0.00000   0.00000   0.00000   0.00000   0.25000
           D1           0.00000   0.00000   0.00000   0.00000   0.00000
           D2           0.00000   0.00000   0.00000   0.00000   0.00000
           D3           0.00000   0.00000   0.00000   0.00000   0.00000
           D4           0.00000   0.00000   0.00000   0.00000   0.00000
                          D1        D2        D3        D4
           D1           0.05792
           D2           0.00000   0.05792
           D3           0.00000   0.00000   0.05792
           D4           0.00000   0.00000   0.00000   0.05792
 ITU=  1  0  1  0
 Use linear search instead of GDIIS.
     Eigenvalues ---    0.11702   0.12473   0.16036   0.25000   0.25000
     Eigenvalues ---    0.71021   2.10776   2.10777   2.10780
 RFO step:  Lambda= 0.00000000D+00 EMin= 1.17024564D-01
 Quartic linear search produced a step of -0.04094.
 Iteration  1 RMS(Cart)=  0.00027423 RMS(Int)=  0.00000000
 Iteration  2 RMS(Cart)=  0.00000000 RMS(Int)=  0.00000000
 Variable       Old X    -DE/DX   Delta X   Delta X   Delta X     New X
                                 (Linear)    (Quad)   (Total)
    R1        2.45947   0.00037   0.00051   0.00000   0.00051   2.45999
    R2        2.45947   0.00037   0.00051   0.00000   0.00051   2.45999
    R3        2.45948   0.00037   0.00051   0.00000   0.00051   2.45999
    R4        2.45947   0.00037   0.00051   0.00000   0.00051   2.45999
    A1        1.91063   0.00000   0.00000   0.00000   0.00000   1.91063
    A2        1.91063   0.00000   0.00000   0.00000   0.00000   1.91063
    A3        1.91063   0.00000   0.00000   0.00000   0.00000   1.91063
    A4        1.91063   0.00000   0.00000   0.00000   0.00000   1.91063
    A5        1.91064   0.00000   0.00000   0.00000   0.00000   1.91063
    A6        1.91063   0.00000   0.00000   0.00001   0.00001   1.91064
    D1        2.09440   0.00000   0.00000   0.00000   0.00000   2.09439
    D2       -2.09440   0.00000   0.00000   0.00000   0.00000  -2.09439
    D3        2.09439   0.00000   0.00000   0.00000   0.00000   2.09440
    D4       -2.09439   0.00000   0.00000   0.00000   0.00000  -2.09440
         Item               Value     Threshold  Converged?
 Maximum Force            0.000373     0.000450     YES
 RMS     Force            0.000199     0.000300     YES
 Maximum Displacement     0.000511     0.001800     YES
 RMS     Displacement     0.000274     0.001200     YES
 Predicted change in Energy=-3.892978D-07
 Optimization completed.
    -- Stationary point found.
                           ----------------------------
                           !   Optimized Parameters   !
                           ! (Angstroms and Degrees)  !
 --------------------------                            --------------------------
 ! Name  Definition              Value          Derivative Info.                !
 --------------------------------------------------------------------------------
 ! R1    R(1,2)                  1.3015         -DE/DX =    0.0004              !
 ! R2    R(1,3)                  1.3015         -DE/DX =    0.0004              !
 ! R3    R(1,4)                  1.3015         -DE/DX =    0.0004              !
 ! R4    R(1,5)                  1.3015         -DE/DX =    0.0004              !
 ! A1    A(2,1,3)              109.4712         -DE/DX =    0.0                 !
 ! A2    A(2,1,4)              109.4713         -DE/DX =    0.0                 !
 ! A3    A(2,1,5)              109.4713         -DE/DX =    0.0                 !
 ! A4    A(3,1,4)              109.4713         -DE/DX =    0.0                 !
 ! A5    A(3,1,5)              109.4713         -DE/DX =    0.0                 !
 ! A6    A(4,1,5)              109.4709         -DE/DX =    0.0                 !
 ! D1    D(2,1,4,3)            120.0001         -DE/DX =    0.0                 !
 ! D2    D(2,1,5,3)           -120.0001         -DE/DX =    0.0                 !
 ! D3    D(2,1,5,4)            119.9999         -DE/DX =    0.0                 !
 ! D4    D(3,1,5,4)           -120.0            -DE/DX =    0.0                 !
 --------------------------------------------------------------------------------
 GradGradGradGradGradGradGradGradGradGradGradGradGradGradGradGradGradGrad

                          Input orientation:                          
 ---------------------------------------------------------------------
 Center     Atomic      Atomic             Coordinates (Angstroms)
 Number     Number       Type             X           Y           Z
 ---------------------------------------------------------------------
      1          6           0       -0.699340    2.349679    0.000000
      2          9           0        0.602158    2.349677   -0.000003
      3          9           0       -1.133169    3.292451    0.785410
      4          9           0       -1.133174    1.198109    0.423759
      5          9           0       -1.133175    2.558474   -1.209166
 ---------------------------------------------------------------------
                    Distance matrix (angstroms):
                    1          2          3          4          5
     1  C    0.000000
     2  F    1.301498   0.000000
     3  F    1.301497   2.125337   0.000000
     4  F    1.301498   2.125338   2.125338   0.000000
     5  F    1.301496   2.125337   2.125337   2.125332   0.000000
 Stoichiometry    CF4
 Framework group  C1[X(CF4)]
 Deg. of freedom     9
 Full point group                 C1      NOp   1
 Largest Abelian subgroup         C1      NOp   1
 Largest concise Abelian subgroup C1      NOp   1
                         Standard orientation:                         
 ---------------------------------------------------------------------
 Center     Atomic      Atomic             Coordinates (Angstroms)
 Number     Number       Type             X           Y           Z
 ---------------------------------------------------------------------
      1          6           0        0.000001   -0.000001    0.000000
      2          9           0        0.820475    0.997163   -0.162434
      3          9           0        0.667768   -1.117098   -0.008683
      4          9           0       -0.870625   -0.007467   -0.967394
      5          9           0       -0.617619    0.127403    1.138511
 ---------------------------------------------------------------------
 Rotational constants (GHZ):      5.8890536      5.8890444      5.8890322

 **********************************************************************

            Population analysis using the SCF density.

 **********************************************************************

 Orbital symmetries:
       Occupied  (A) (A) (A) (A) (A) (A) (A) (A) (A) (A) (A) (A)
                 (A) (A) (A) (A) (A) (A) (A) (A) (A)
       Virtual   (A) (A) (A) (A) (A) (A) (A) (A) (A) (A) (A) (A)
                 (A) (A) (A) (A) (A) (A) (A) (A) (A) (A) (A) (A)
                 (A) (A) (A) (A) (A) (A) (A) (A) (A) (A) (A) (A)
                 (A) (A) (A) (A) (A) (A) (A) (A) (A) (A) (A) (A)
                 (A) (A) (A) (A) (A) (A)
 The electronic state is 1-A.
 Alpha  occ. eigenvalues --  -26.37432 -26.37432 -26.37432 -26.37427 -11.60461
 Alpha  occ. eigenvalues --   -1.81322  -1.67892  -1.67892  -1.67892  -1.00490
 Alpha  occ. eigenvalues --   -0.88968  -0.88968  -0.88968  -0.75891  -0.75891
 Alpha  occ. eigenvalues --   -0.70454  -0.70454  -0.70454  -0.67298  -0.67298
 Alpha  occ. eigenvalues --   -0.67298
 Alpha virt. eigenvalues --    0.43805   0.43805   0.43805   0.44180   0.67648
 Alpha virt. eigenvalues --    0.67648   0.67648   0.68870   1.29694   1.29694
 Alpha virt. eigenvalues --    1.30013   1.30013   1.30013   1.40838   1.57181
 Alpha virt. eigenvalues --    1.57181   1.61305   1.61305   1.61305   1.65881
 Alpha virt. eigenvalues --    1.65881   1.65881   1.81698   1.81699   1.81699
 Alpha virt. eigenvalues --    2.09047   2.09047   2.09047   2.11673   2.11673
 Alpha virt. eigenvalues --    2.22163   2.22163   2.22163   2.31046   2.31046
 Alpha virt. eigenvalues --    2.31047   2.38885   2.38885   2.38886   2.58499
 Alpha virt. eigenvalues --    2.94163   2.94163   2.94163   3.16323   3.16323
 Alpha virt. eigenvalues --    3.38561   3.42553   3.42553   3.42553   4.71348
 Alpha virt. eigenvalues --    4.73296   4.73297   4.73297   6.30123
          Condensed to atoms (all electrons):
               1          2          3          4          5
     1  C    3.301147   0.346556   0.346556   0.346556   0.346557
     2  F    0.346556   9.094419  -0.037606  -0.037606  -0.037606
     3  F    0.346556  -0.037606   9.094417  -0.037606  -0.037606
     4  F    0.346556  -0.037606  -0.037606   9.094420  -0.037606
     5  F    0.346557  -0.037606  -0.037606  -0.037606   9.094417
 Mulliken charges:
               1
     1  C    1.312628
     2  F   -0.328158
     3  F   -0.328156
     4  F   -0.328158
     5  F   -0.328156
 Sum of Mulliken charges =   0.00000
 Mulliken charges with hydrogens summed into heavy atoms:
               1
     1  C    1.312628
     2  F   -0.328158
     3  F   -0.328156
     4  F   -0.328158
     5  F   -0.328156
 Electronic spatial extent (au):  <R**2>=            273.3821
 Charge=              0.0000 electrons
 Dipole moment (field-independent basis, Debye):
    X=              0.0000    Y=              0.0000    Z=              0.0000  Tot=              0.0000
 Quadrupole moment (field-independent basis, Debye-Ang):
   XX=            -24.9359   YY=            -24.9359   ZZ=            -24.9359
   XY=              0.0000   XZ=              0.0000   YZ=              0.0000
 Traceless Quadrupole moment (field-independent basis, Debye-Ang):
   XX=              0.0000   YY=              0.0000   ZZ=              0.0000
   XY=              0.0000   XZ=              0.0000   YZ=              0.0000
 Octapole moment (field-independent basis, Debye-Ang**2):
  XXX=              0.0345  YYY=              0.3044  ZZZ=             -0.4304  XYY=             -1.2461
  XXY=             -0.1643  XXZ=              0.3134  XZZ=              1.2116  YZZ=             -0.1402
  YYZ=              0.1170  XYZ=              0.1690
 Hexadecapole moment (field-independent basis, Debye-Ang**3):
 XXXX=            -77.1953 YYYY=            -77.2459 ZZZZ=            -77.2461 XXXY=             -0.0083
 XXXZ=             -0.0120 YYYX=              0.0051 YYYZ=              0.0063 ZZZX=              0.0055
 ZZZY=             -0.0082 XXYY=            -25.7652 XXZZ=            -25.7647 YYZZ=            -25.7140
 XXYZ=              0.0019 YYXZ=              0.0065 ZZXY=              0.0032
 N-N= 2.088304564664D+02 E-N=-1.457148354352D+03  KE= 4.347493210530D+02
 1\1\GINC-TP-LINUX1\FOpt\RHF\6-31G(d)\C1F4\THOMAS\02-Mar-2017\0\\# HF/6
 -31G* Opt\\\0,1\C,-0.6993397367,2.3496791999,0.0000003457\F,0.60215832
 24,2.3496769712,-0.0000025948\F,-1.1331689973,3.2924509662,0.785409666
 6\F,-1.1331743977,1.1981089476,0.4237589454\F,-1.1331751908,2.55847391
 51,-1.209166363\\Version=ES64L-G09RevD.01\State=1-A\HF=-435.6452069\RM
 SD=1.889e-09\RMSF=1.920e-04\Dipole=0.,0.0000056,0.0000001\Quadrupole=-
 0.0000028,-0.0000024,0.0000052,-0.000005,-0.0000001,-0.0000006\PG=C01 
 [X(C1F4)]\\@


 ABSOLUTISM, OBSOLETISM -- IF IT WORKS, IT'S OUT OF DATE

                          -- STAFFORD BEER
 Job cpu time:       0 days  0 hours  1 minutes 16.3 seconds.
 File lengths (MBytes):  RWF=      5 Int=      0 D2E=      0 Chk=      2 Scr=      1
 Normal termination of Gaussian 09 at Thu Mar  2 11:16:40 2017.
