                                                                        
FOpt      RPBE1PBE                                                    6-31+G(d)           
Number of atoms                            I                5
Info1-9                                    I   N=           9
          13          13           0           0           0         110
           2          18        -302
Charge                                     I                0
Multiplicity                               I                1
Number of electrons                        I               42
Number of alpha electrons                  I               21
Number of beta electrons                   I               21
Number of basis functions                  I               95
Number of independent functions            I               95
Number of point charges in /Mol/           I                0
Number of translation vectors              I                0
Atomic numbers                             I   N=           5
           6           9           9           9           9
Nuclear charges                            R   N=           5
  6.00000000E+00  9.00000000E+00  9.00000000E+00  9.00000000E+00  9.00000000E+00
Current cartesian coordinates              R   N=          15
  8.99999635E-05 -4.92530462E-05 -1.64113271E-05 -7.41272157E-01  6.67939974E-01
  2.29544630E+00 -1.10525159E+00 -2.15258967E+00 -6.40215575E-01  2.48505991E+00
 -2.99621743E-01 -2.01897575E-02 -6.38596165E-01  1.78430428E+00 -1.63503003E+00
Force Field                                I                0
Int Atom Types                             I   N=           5
           0           0           0           0           0
MM charges                                 R   N=           5
  0.00000000E+00  0.00000000E+00  0.00000000E+00  0.00000000E+00  0.00000000E+00
Integer atomic weights                     I   N=           5
          12          19          19          19          19
Real atomic weights                        R   N=           5
  1.20000000E+01  1.89984032E+01  1.89984032E+01  1.89984032E+01  1.89984032E+01
Atom fragment info                         I   N=           5
           0           0           0           0           0
Atom residue num                           I   N=           5
           0           0           0           0           0
Nuclear spins                              I   N=           5
           0           1           1           1           1
Nuclear ZEff                               R   N=           5
 -3.60000000E+00 -6.75000000E+00 -6.75000000E+00 -6.75000000E+00 -6.75000000E+00
Nuclear ZNuc                               R   N=           5
  6.00000000E+00  9.00000000E+00  9.00000000E+00  9.00000000E+00  9.00000000E+00
Nuclear QMom                               R   N=           5
  0.00000000E+00  0.00000000E+00  0.00000000E+00  0.00000000E+00  0.00000000E+00
Nuclear GFac                               R   N=           5
  0.00000000E+00  2.62886700E+00  2.62886700E+00  2.62886700E+00  2.62886700E+00
MicOpt                                     I   N=           5
          -1          -1          -1          -1          -1
Number of contracted shells                I               25
Number of primitive shells                 I               60
Pure/Cartesian d shells                    I                1
Pure/Cartesian f shells                    I                0
Highest angular momentum                   I                2
Largest degree of contraction              I                6
Shell types                                I   N=          25
           0          -1          -1          -1           2           0
          -1          -1          -1           2           0          -1
          -1          -1           2           0          -1          -1
          -1           2           0          -1          -1          -1
           2
Number of primitives per shell             I   N=          25
           6           3           1           1           1           6
           3           1           1           1           6           3
           1           1           1           6           3           1
           1           1           6           3           1           1
           1
Shell to atom map                          I   N=          25
           1           1           1           1           1           2
           2           2           2           2           3           3
           3           3           3           4           4           4
           4           4           5           5           5           5
           5
Primitive exponents                        R   N=          60
  3.04752488E+03  4.57369518E+02  1.03948685E+02  2.92101553E+01  9.28666296E+00
  3.16392696E+00  7.86827235E+00  1.88128854E+00  5.44249258E-01  1.68714478E-01
  4.38000000E-02  8.00000000E-01  7.00171309E+03  1.05136609E+03  2.39285690E+02
  6.73974453E+01  2.15199573E+01  7.40310130E+00  2.08479528E+01  4.80830834E+00
  1.34406986E+00  3.58151393E-01  1.07600000E-01  8.00000000E-01  7.00171309E+03
  1.05136609E+03  2.39285690E+02  6.73974453E+01  2.15199573E+01  7.40310130E+00
  2.08479528E+01  4.80830834E+00  1.34406986E+00  3.58151393E-01  1.07600000E-01
  8.00000000E-01  7.00171309E+03  1.05136609E+03  2.39285690E+02  6.73974453E+01
  2.15199573E+01  7.40310130E+00  2.08479528E+01  4.80830834E+00  1.34406986E+00
  3.58151393E-01  1.07600000E-01  8.00000000E-01  7.00171309E+03  1.05136609E+03
  2.39285690E+02  6.73974453E+01  2.15199573E+01  7.40310130E+00  2.08479528E+01
  4.80830834E+00  1.34406986E+00  3.58151393E-01  1.07600000E-01  8.00000000E-01
Contraction coefficients                   R   N=          60
  1.83473713E-03  1.40373228E-02  6.88426223E-02  2.32184443E-01  4.67941348E-01
  3.62311985E-01 -1.19332420E-01 -1.60854152E-01  1.14345644E+00  1.00000000E+00
  1.00000000E+00  1.00000000E+00  1.81961690E-03  1.39160796E-02  6.84053245E-02
  2.33185760E-01  4.71267439E-01  3.56618546E-01 -1.08506975E-01 -1.46451658E-01
  1.12868858E+00  1.00000000E+00  1.00000000E+00  1.00000000E+00  1.81961690E-03
  1.39160796E-02  6.84053245E-02  2.33185760E-01  4.71267439E-01  3.56618546E-01
 -1.08506975E-01 -1.46451658E-01  1.12868858E+00  1.00000000E+00  1.00000000E+00
  1.00000000E+00  1.81961690E-03  1.39160796E-02  6.84053245E-02  2.33185760E-01
  4.71267439E-01  3.56618546E-01 -1.08506975E-01 -1.46451658E-01  1.12868858E+00
  1.00000000E+00  1.00000000E+00  1.00000000E+00  1.81961690E-03  1.39160796E-02
  6.84053245E-02  2.33185760E-01  4.71267439E-01  3.56618546E-01 -1.08506975E-01
 -1.46451658E-01  1.12868858E+00  1.00000000E+00  1.00000000E+00  1.00000000E+00
P(S=P) Contraction coefficients            R   N=          60
  0.00000000E+00  0.00000000E+00  0.00000000E+00  0.00000000E+00  0.00000000E+00
  0.00000000E+00  6.89990666E-02  3.16423961E-01  7.44308291E-01  1.00000000E+00
  1.00000000E+00  0.00000000E+00  0.00000000E+00  0.00000000E+00  0.00000000E+00
  0.00000000E+00  0.00000000E+00  0.00000000E+00  7.16287242E-02  3.45912103E-01
  7.22469956E-01  1.00000000E+00  1.00000000E+00  0.00000000E+00  0.00000000E+00
  0.00000000E+00  0.00000000E+00  0.00000000E+00  0.00000000E+00  0.00000000E+00
  7.16287242E-02  3.45912103E-01  7.22469956E-01  1.00000000E+00  1.00000000E+00
  0.00000000E+00  0.00000000E+00  0.00000000E+00  0.00000000E+00  0.00000000E+00
  0.00000000E+00  0.00000000E+00  7.16287242E-02  3.45912103E-01  7.22469956E-01
  1.00000000E+00  1.00000000E+00  0.00000000E+00  0.00000000E+00  0.00000000E+00
  0.00000000E+00  0.00000000E+00  0.00000000E+00  0.00000000E+00  7.16287242E-02
  3.45912103E-01  7.22469956E-01  1.00000000E+00  1.00000000E+00  0.00000000E+00
Coordinates of each shell                  R   N=          75
  8.99999635E-05 -4.92530462E-05 -1.64113271E-05  8.99999635E-05 -4.92530462E-05
 -1.64113271E-05  8.99999635E-05 -4.92530462E-05 -1.64113271E-05  8.99999635E-05
 -4.92530462E-05 -1.64113271E-05  8.99999635E-05 -4.92530462E-05 -1.64113271E-05
 -7.41272157E-01  6.67939974E-01  2.29544630E+00 -7.41272157E-01  6.67939974E-01
  2.29544630E+00 -7.41272157E-01  6.67939974E-01  2.29544630E+00 -7.41272157E-01
  6.67939974E-01  2.29544630E+00 -7.41272157E-01  6.67939974E-01  2.29544630E+00
 -1.10525159E+00 -2.15258967E+00 -6.40215575E-01 -1.10525159E+00 -2.15258967E+00
 -6.40215575E-01 -1.10525159E+00 -2.15258967E+00 -6.40215575E-01 -1.10525159E+00
 -2.15258967E+00 -6.40215575E-01 -1.10525159E+00 -2.15258967E+00 -6.40215575E-01
  2.48505991E+00 -2.99621743E-01 -2.01897575E-02  2.48505991E+00 -2.99621743E-01
 -2.01897575E-02  2.48505991E+00 -2.99621743E-01 -2.01897575E-02  2.48505991E+00
 -2.99621743E-01 -2.01897575E-02  2.48505991E+00 -2.99621743E-01 -2.01897575E-02
 -6.38596165E-01  1.78430428E+00 -1.63503003E+00 -6.38596165E-01  1.78430428E+00
 -1.63503003E+00 -6.38596165E-01  1.78430428E+00 -1.63503003E+00 -6.38596165E-01
  1.78430428E+00 -1.63503003E+00 -6.38596165E-01  1.78430428E+00 -1.63503003E+00
Constraint Structure                       R   N=          15
  2.60950122E-06 -1.32140236E-06  2.80038319E-06  1.14221091E+00  1.64328310E+00
 -2.88941244E-01  1.19203199E+00 -1.61475180E+00  2.45252594E-01 -1.19434018E+00
 -2.81762792E-01 -1.60706392E+00 -1.13990447E+00  2.53232370E-01  1.65075070E+00
Num ILSW                                   I              100
ILSW                                       I   N=         100
           0           1           0           0           2           0
           0           0           0           0        1009          -1
           0           0           0           0           2           0
           0           0           0           0           1           0
           1           0           0           0           0           0
           0           0      100000           0          -1           0
           0           0           0           0           0           0
           0           0           0           1           0           0
           0           0           1           0           0           0
           0           0           4          41           0           0
           0           0          13           0           0           0
           0           0           0           5           0           0
           0           0           0           0           0           0
           0           0           0           0           0           0
           0           0           0           0           0           0
           0           0           0           0           0           0
           0           0           0           0
Num RLSW                                   I               41
RLSW                                       R   N=          41
  7.50000000E-01  7.50000000E-01  1.00000000E+00  1.00000000E+00  2.50000000E-01
  0.00000000E+00  0.00000000E+00  1.00000000E+00  0.00000000E+00  0.00000000E+00
  0.00000000E+00  0.00000000E+00  1.00000000E+00  0.00000000E+00  0.00000000E+00
  0.00000000E+00  0.00000000E+00  1.00000000E+00  0.00000000E+00  0.00000000E+00
  0.00000000E+00  0.00000000E+00  1.00000000E+00  0.00000000E+00  0.00000000E+00
  0.00000000E+00  0.00000000E+00  1.00000000E+00  0.00000000E+00  0.00000000E+00
  0.00000000E+00  0.00000000E+00  1.00000000E+00  0.00000000E+00  0.00000000E+00
  0.00000000E+00  0.00000000E+00  0.00000000E+00  1.00000000E+00  1.00000000E+00
  0.00000000E+00
MxBond                                     I                4
NBond                                      I   N=           5
           4           1           1           1           1
IBond                                      I   N=          20
           2           3           4           5           1           0
           0           0           1           0           0           0
           1           0           0           0           1           0
           0           0
RBond                                      R   N=          20
  3.00000000E+00  3.00000000E+00  3.00000000E+00  3.00000000E+00  3.00000000E+00
  0.00000000E+00  0.00000000E+00  0.00000000E+00  3.00000000E+00  0.00000000E+00
  0.00000000E+00  0.00000000E+00  3.00000000E+00  0.00000000E+00  0.00000000E+00
  0.00000000E+00  3.00000000E+00  0.00000000E+00  0.00000000E+00  0.00000000E+00
Virial Ratio                               R      2.006949327394192E+00
SCF Energy                                 R     -4.370959169100906E+02
Total Energy                               R     -4.370959169100906E+02
RMS Force                                  R      3.507626903969363E-05
RMS Density                                R      5.185353706954299E-09
External E-field                           R   N=          35
  0.00000000E+00  0.00000000E+00  0.00000000E+00  0.00000000E+00  0.00000000E+00
  0.00000000E+00  0.00000000E+00  0.00000000E+00  0.00000000E+00  0.00000000E+00
  0.00000000E+00  0.00000000E+00  0.00000000E+00  0.00000000E+00  0.00000000E+00
  0.00000000E+00  0.00000000E+00  0.00000000E+00  0.00000000E+00  0.00000000E+00
  0.00000000E+00  0.00000000E+00  0.00000000E+00  0.00000000E+00  0.00000000E+00
  0.00000000E+00  0.00000000E+00  0.00000000E+00  0.00000000E+00  0.00000000E+00
  0.00000000E+00  0.00000000E+00  0.00000000E+00  0.00000000E+00  0.00000000E+00
IOpCl                                      I                0
IROHF                                      I                0
Alpha Orbital Energies                     R   N=          95
 -2.48707590E+01 -2.48707486E+01 -2.48707335E+01 -2.48707209E+01 -1.05903306E+01
 -1.42923694E+00 -1.31244827E+00 -1.31243533E+00 -1.31242358E+00 -7.71615195E-01
 -6.75544867E-01 -6.75536433E-01 -6.75531152E-01 -5.38970833E-01 -5.38966002E-01
 -5.11375012E-01 -5.11366506E-01 -5.11360983E-01 -4.67809968E-01 -4.67798351E-01
 -4.67788384E-01  2.15194197E-02  6.10044662E-02  6.10126892E-02  6.10153908E-02
  1.65081242E-01  1.65091579E-01  1.65106439E-01  1.90754193E-01  2.42738306E-01
  2.42757560E-01  2.49327121E-01  2.49336390E-01  2.49348842E-01  2.73507784E-01
  3.27587271E-01  3.27614537E-01  3.27619768E-01  3.31311714E-01  3.31328702E-01
  3.31336033E-01  3.54318308E-01  4.36125900E-01  4.36130187E-01  4.36150844E-01
  7.43078590E-01  7.43124141E-01  7.43154681E-01  1.10101653E+00  1.10102189E+00
  1.23344658E+00  1.47501219E+00  1.47503293E+00  1.47505205E+00  1.54143382E+00
  1.54147520E+00  1.58420698E+00  1.58421700E+00  1.58425709E+00  1.61032935E+00
  1.63503397E+00  1.63505222E+00  1.63506680E+00  1.79592012E+00  1.79595653E+00
  1.79595873E+00  1.80854918E+00  1.80857939E+00  1.80860662E+00  1.82211117E+00
  1.82214182E+00  1.98289093E+00  1.98295748E+00  1.98298972E+00  2.03250044E+00
  2.03252461E+00  2.03254558E+00  2.03317610E+00  2.03322112E+00  2.03331338E+00
  2.35597822E+00  2.62420873E+00  2.62428895E+00  2.62448040E+00  2.79903483E+00
  2.79904186E+00  3.11988126E+00  3.11994107E+00  3.11997043E+00  3.32099679E+00
  4.55483370E+00  5.40405803E+00  5.40426021E+00  5.40442494E+00  6.41348021E+00
Alpha MO coefficients                      R   N=        9025
 -9.33714712E-05 -3.13852308E-04  6.00638117E-04 -1.60343885E-04 -1.25620163E-05
  5.76374200E-03  1.26652341E-03 -3.37847700E-04 -2.63523129E-05  1.63354841E-03
  5.55489779E-04 -1.48263357E-04 -1.16167024E-05  7.74043203E-04  2.15097184E-04
  1.55503777E-04 -4.54810239E-05  7.58533582E-07  3.09407438E-05  8.97230256E-02
  2.13183405E-03  6.51675202E-05 -4.87155252E-05 -1.53307529E-04  5.93379754E-06
 -4.48136753E-04  2.86705509E-04  8.19887338E-04 -7.41904348E-04 -1.05932306E-04
  1.18151959E-05 -7.75827853E-05 -5.96353329E-04 -5.25133971E-04 -7.10630879E-04
  6.77737781E-05  1.94843787E-04 -1.04855753E-04  2.01516894E-01  4.18929809E-03
  1.39048811E-04  2.35875056E-04  7.10681445E-05  2.00877045E-03 -6.65913161E-04
 -8.88121721E-04 -2.74928719E-04 -1.21709505E-03 -1.13908680E-04  7.02283168E-05
  1.31684398E-05 -1.62982897E-03 -1.66446930E-03 -1.46653603E-03 -2.48654979E-04
 -7.76255401E-05 -8.22661059E-05  9.66252759E-01  1.82637254E-02 -1.02445648E-03
  1.21193592E-04  8.12037254E-06  1.57080265E-02  2.25791851E-03 -2.45225478E-04
 -1.59994870E-05 -4.46996861E-03  1.46876274E-04  1.60714386E-06  5.04457540E-07
 -8.83768009E-03 -7.98391961E-03 -7.97343330E-03  1.01009840E-04  6.31419383E-06
 -1.66456194E-06  6.16861265E-02  1.61582440E-03  5.11309730E-05 -1.03028231E-04
  9.02273458E-05 -4.96242579E-04 -3.98792127E-04  6.47723489E-04 -5.44552420E-04
 -6.22551064E-04 -1.06503019E-04 -3.56751422E-05  6.77005739E-05 -3.40669112E-04
 -4.10723653E-04 -3.46218336E-04  1.46640897E-04 -1.24636088E-04  1.43383370E-04
 -6.41534728E-05 -2.15634911E-04 -4.94385981E-04 -5.33276873E-04 -1.38397499E-04
  3.96004604E-03 -1.04323356E-03 -1.12431651E-03 -2.91780643E-04  1.12230479E-03
 -4.57245059E-04 -4.93118419E-04 -1.27964360E-04  4.47085600E-05  5.70596453E-04
  1.70965477E-04  2.99594089E-04  7.47412373E-05  1.68160091E-04  9.95357091E-02
  2.16198749E-03  3.22633410E-05 -5.47092946E-05 -1.43646592E-04  6.82941104E-04
 -4.92089535E-05  3.45120943E-04  6.65515807E-04 -6.71102672E-04  1.21622504E-04
  1.05245950E-04 -1.01532434E-05 -6.24346161E-04 -7.41322832E-04 -8.85913694E-04
  1.46235427E-05 -2.06585265E-05 -1.73772590E-04  9.62908058E-01  1.80516821E-02
  4.37672445E-04  8.63549731E-04  2.57335968E-04  1.61494216E-02 -8.31096766E-04
 -1.75064506E-03 -5.26832504E-04 -4.34337052E-03 -3.22015346E-05 -1.57005150E-04
 -5.11534881E-05 -8.14929548E-03 -8.63331329E-03 -8.08734807E-03 -3.18684122E-04
 -9.61283061E-05 -2.10546278E-04 -2.13607778E-01 -3.60115294E-03  1.47894603E-04
 -3.33798035E-05 -4.93748570E-06 -4.92649266E-03  2.69059149E-04  1.49726231E-04
  4.15748817E-05  6.61665654E-04 -6.62823886E-05  1.38161506E-04  3.18025574E-05
  1.91818948E-03  2.02200867E-03  2.01206854E-03 -1.17427471E-04 -3.06523117E-05
 -1.30085193E-06  5.73902175E-02  1.38637061E-03  1.51867510E-05 -9.26222942E-05
  6.84425569E-05 -7.21514691E-05 -2.06479063E-06  5.94261865E-04 -3.51884529E-04
 -4.91751062E-04  1.24343247E-04  7.29027269E-05  7.08291071E-05 -2.64329459E-04
 -5.39037733E-04 -3.43981835E-04 -1.81764520E-05  3.77499857E-05  1.38832887E-04
 -6.35301200E-05 -2.13559771E-04 -2.43780955E-04  3.33339961E-04  6.16647584E-04
  3.92168350E-03 -5.14560329E-04  7.03127500E-04  1.30007791E-03  1.11137779E-03
 -2.25472423E-04  3.08226448E-04  5.70140081E-04  4.99585845E-05  7.69463854E-05
  6.51699756E-04 -1.10092126E-04 -2.07944970E-04  1.25841884E-04  9.75501113E-01
  1.82803526E-02  2.99481803E-04 -2.66813465E-04 -9.30758453E-04  1.63854289E-02
 -5.89690907E-04  4.96349182E-04  1.86834752E-03 -4.39439215E-03 -4.26572986E-05
  1.35504599E-05  1.62524486E-04 -8.20305585E-03 -8.18108097E-03 -8.81902178E-03
  6.34908945E-05  2.44639626E-04 -1.96948945E-04 -1.23789966E-01 -1.95136350E-03
 -3.83172430E-05 -5.34211865E-05 -2.34029515E-06 -3.30696537E-03 -4.61497862E-05
 -3.38319977E-04 -2.59585818E-04  2.81369257E-04  1.14146172E-04  4.48995101E-05
 -1.00208419E-04  1.28442567E-03  1.14093425E-03  1.17023966E-03  1.47649298E-05
 -3.66537633E-05 -1.31751049E-04 -7.21705361E-02 -1.00131471E-03  1.38566460E-05
  6.30375854E-06  1.59980294E-05 -2.38219593E-03  4.38874848E-04 -1.46324484E-04
 -1.92392120E-04  6.22764141E-05 -6.13880803E-05 -5.93318976E-05 -1.34440906E-04
  6.68889572E-04  7.90381579E-04  7.84176339E-04  8.48370560E-05  1.33663634E-04
 -2.00183252E-05  1.17833501E-01  2.49555802E-03  3.71356950E-05 -1.12860300E-04
  1.27547900E-04  1.02131252E-03 -1.05516712E-04  4.01768712E-04 -6.51441809E-04
 -7.46617742E-04  6.26050754E-05 -9.85483302E-05 -1.12049342E-04 -8.08826695E-04
 -8.48426914E-04 -1.07710376E-03 -1.55250492E-06 -3.65169931E-05  1.64062235E-04
 -5.38449210E-05 -1.81037860E-04 -1.65418215E-04  5.20341006E-04 -5.40739984E-04
  3.32380445E-03 -3.49273634E-04  1.09732287E-03 -1.13993747E-03  9.41954627E-04
 -1.53001227E-04  4.81140974E-04 -4.99960821E-04  4.58492854E-05  3.56489860E-04
  2.57666930E-04 -1.48172473E-04  1.54977918E-04 -4.02474668E-04 -1.28362595E-01
 -2.08536864E-03 -2.94649772E-05  3.62539688E-05  6.36309193E-05 -3.22284888E-03
 -5.55806440E-06 -1.09017180E-04  3.40869294E-04  3.37907317E-04  7.36594417E-05
 -1.47851224E-04  3.01289440E-06  1.27588045E-03  1.29709706E-03  1.08859644E-03
 -3.74151560E-05 -9.23068187E-06  8.71215168E-05 -5.39629578E-02 -7.16042021E-04
 -8.77838915E-06  4.99824623E-06 -1.67251188E-05 -1.89012807E-03 -9.20865522E-05
 -4.38308053E-04  8.32897065E-05  2.18012301E-05  7.82559537E-05 -3.25490028E-05
  1.42971045E-04  6.37783756E-04  4.14429895E-04  6.60434500E-04 -3.52212260E-05
  4.59089424E-05  6.88637646E-05 -3.94425791E-02 -4.48823761E-04 -8.85363334E-06
  1.41876680E-05 -1.41332379E-05 -1.62982494E-03  3.97945702E-04 -2.01728009E-04
  1.63283218E-04 -3.95854437E-05 -5.20245532E-05 -1.03581606E-04  1.19424894E-04
  3.75997278E-04  4.64153031E-04  4.92118629E-04  1.24006292E-04 -1.14638562E-04
  2.59330139E-05  9.82371341E-01  1.83570543E-02  2.58900368E-04 -7.21691669E-04
  6.59597483E-04  1.66742985E-02 -5.05549051E-04  1.39454534E-03 -1.25823092E-03
 -4.38616406E-03 -5.05982770E-05  1.28667135E-04 -1.03853455E-04 -8.27742358E-03
 -8.61932245E-03 -8.53981849E-03  1.66043455E-04 -1.49451839E-04  4.08719805E-04
  9.94118475E-01  4.48559119E-02  1.84303363E-09 -1.05425357E-07  1.28701528E-08
 -2.31388650E-02  8.15939308E-07 -4.10713011E-07 -1.29384177E-07 -1.99240916E-03
 -1.57055866E-07  6.84373535E-08  3.93522766E-08 -6.10574608E-03 -6.10588828E-03
 -6.10598961E-03  3.23699801E-08 -4.14143119E-10  4.14915363E-08 -6.93735932E-05
 -3.98692600E-05 -8.70792913E-07  7.89919408E-07  2.74216879E-06  9.03401149E-04
 -4.13007582E-05  3.71796791E-05  1.27581563E-04  3.39719974E-03  5.17733049E-04
 -4.66439487E-04 -1.60274241E-03  5.01651730E-05  6.09420546E-05 -4.41904896E-04
  5.96278981E-05  2.04890161E-04 -1.84606597E-04 -6.93394622E-05 -3.96966440E-05
 -1.29843344E-06 -2.56541781E-06 -7.60476122E-07  9.02760519E-04 -6.16391583E-05
 -1.19776729E-04 -3.56368787E-05  3.39712431E-03  7.71840845E-04  1.50285570E-03
  4.46950814E-04 -1.98127286E-05 -3.75561439E-04  6.48611455E-05 -2.86513795E-04
 -8.52127881E-05 -1.65937421E-04 -6.93035823E-05 -3.95154891E-05  2.94304005E-06
 -3.60263844E-07 -2.66330957E-08  9.02060902E-04  1.38473722E-04 -1.66512621E-05
 -1.10516070E-06  3.39691279E-03 -1.73477609E-03  2.09102877E-04  1.40532892E-05
 -5.36277093E-04  9.83618521E-05  1.07672185E-04  8.96409202E-05  6.03216139E-06
 -7.25975371E-07 -6.93734996E-05 -3.98913220E-05 -7.47161177E-07  2.12682421E-06
 -1.95686043E-06  9.03503183E-04 -3.55923474E-05  9.91813824E-05 -9.08229573E-05
  3.39705510E-03  4.46020115E-04 -1.24584303E-03  1.14149926E-03  6.49122101E-05
 -2.24519136E-04 -1.71274980E-04  1.37216144E-04 -1.25730010E-04  3.51230039E-04
 -1.14016670E-01  2.44339540E-01 -1.80887127E-05  2.24484970E-06  1.01839898E-05
 -1.09945333E-01  2.08911393E-05 -8.61635293E-06 -3.69752420E-06 -1.42522918E-02
  1.81196956E-06  6.16022347E-08 -5.67928056E-07 -6.71129628E-03 -6.71117601E-03
 -6.71096290E-03  9.32704564E-07 -4.36855555E-07  1.80211156E-06 -9.95541522E-02
  2.17570546E-01  1.95388196E-02 -1.76072399E-02 -6.05037176E-02  2.19026158E-01
  1.78499683E-02 -1.60856931E-02 -5.52746264E-02  2.39703969E-02  5.17325448E-05
 -4.58855481E-05 -1.63922147E-04  3.36999381E-03  3.02774302E-03  1.89909641E-02
 -1.89259970E-03 -6.50356764E-03  5.86077801E-03 -9.95514676E-02  2.17562797E-01
  2.91310765E-02  5.67318090E-02  1.68747482E-02  2.19022842E-01  2.66137537E-02
  5.18310104E-02  1.54163105E-02  2.39693696E-02  7.74443271E-05  1.54014515E-04
  4.53780990E-05  5.59270575E-03  1.68838177E-02  2.90486614E-03  9.09357859E-03
  2.70458926E-03  5.26685413E-03 -9.95404463E-02  2.17538915E-01 -6.54841466E-02
  7.89367059E-03  5.31891549E-04  2.18997404E-01 -5.98303876E-02  7.21304172E-03
  4.85770169E-04  2.39537712E-02 -1.71380013E-04  2.11832497E-05  1.48325095E-06
  2.19863623E-02  1.84503163E-03  1.54977692E-03 -2.84473761E-03 -1.91415480E-04
  2.30424782E-05 -9.95410397E-02  2.17534530E-01  1.68300680E-02 -4.70248598E-02
  4.30898630E-02  2.19013820E-01  1.53766552E-02 -4.29640998E-02  3.93688152E-02
  2.39582328E-02  4.38026574E-05 -1.24409823E-04  1.14297373E-04  2.89721609E-03
  1.20848744E-02  1.03941688E-02 -4.35510959E-03  3.99075193E-03 -1.11496632E-02
 -3.51223404E-06  7.35424540E-06  1.63744119E-01  2.44893477E-02 -4.35809723E-03
 -1.68685895E-06 -2.37550853E-02 -3.55599153E-03  6.30753441E-04 -4.26237312E-08
 -3.54045883E-03 -5.29332478E-04  9.46469527E-05  2.64601324E-02 -1.58273665E-02
 -1.06348304E-02 -1.05990686E-02 -6.36716318E-04 -4.87838904E-03  5.42566183E-02
 -1.25162566E-01  6.37659963E-03  9.27246139E-03  2.41341713E-02 -1.07979921E-01
  4.88127845E-03  5.59084205E-03  1.40691828E-02 -4.10279003E-03  5.56031027E-03
  9.44198419E-04  1.85234087E-04 -2.70841361E-03 -4.06382999E-03 -8.02642638E-03
 -8.09705699E-05 -9.53608348E-04 -1.91275627E-03  1.08926145E-01 -2.51276566E-01
 -9.40490001E-03 -4.40083462E-02 -1.41064362E-02 -2.16785511E-01 -4.34013832E-03
 -2.55421784E-02 -8.27302196E-03 -8.25136975E-03  5.34015279E-03  2.11325181E-04
 -3.41032960E-04 -7.24216874E-03 -1.46167265E-02 -7.84644507E-03 -2.11189907E-03
 -7.34168664E-04 -2.74631922E-03 -1.88550146E-01  4.34960345E-01 -7.79172540E-02
  1.32513518E-02  3.66978370E-04  3.75251928E-01 -4.43768238E-02  7.91738516E-03
  1.83926161E-04  1.42735558E-02  4.40046474E-03  9.98100240E-04 -1.41577860E-04
  2.61571924E-02  1.28324618E-02  1.24376209E-02 -2.65781477E-03 -7.29339896E-05
  4.41743331E-05  2.53469738E-02 -5.84712474E-02  1.11066073E-02  1.10405776E-02
 -8.53819011E-03 -5.04464237E-02  7.64479029E-03  6.62266532E-03 -5.01841619E-03
 -1.91399617E-03  5.62531959E-03  9.69755790E-04 -2.61596270E-04 -7.00390954E-04
 -3.42097500E-03 -2.79075804E-03 -1.35873133E-03  1.38758446E-03  1.75683290E-03
  4.11972878E-07  1.90272450E-07  1.98861842E-02 -1.46311593E-01 -7.50213069E-02
 -8.83719635E-06 -2.88503598E-03  2.12129536E-02  1.08802908E-02 -5.59096124E-06
 -4.30443420E-04  3.16375366E-03  1.62158303E-03  9.87332718E-03  1.23507266E-02
 -2.22246908E-02  1.53327452E-02  8.19386677E-03  6.90644321E-03  1.34306617E-01
 -3.09827372E-01 -1.78613549E-02  4.88415159E-03  5.41290582E-02 -2.67294090E-01
 -1.02951741E-02  1.82572491E-03  3.10972793E-02 -1.01574232E-02  4.20931475E-04
 -4.82518198E-03 -1.76454138E-03 -9.89292754E-03 -8.66184910E-03 -1.80796721E-02
  2.95262213E-04  3.52571884E-03 -1.16968659E-03 -1.60884367E-01  3.71140135E-01
  3.67352440E-02  5.53802214E-02  1.37219442E-02  3.20186547E-01  2.16048616E-02
  3.13277483E-02  7.48946862E-03  1.21740679E-02  1.17033059E-03 -4.13156068E-03
 -2.31820659E-03  1.39698783E-02  1.87387968E-02  1.11714438E-02  6.25698226E-03
  1.59246920E-03  2.31285360E-03 -4.47123342E-02  1.03144621E-01 -2.01286821E-02
 -1.01353843E-02 -6.37080853E-03  8.89894516E-02 -1.16222336E-02 -6.95318712E-03
 -4.25144304E-03  3.37871377E-03  3.91448369E-04 -5.02964043E-03 -2.59396514E-03
  6.75990009E-03  2.38802724E-03  3.04572366E-03  1.90903320E-03  1.23651089E-03
 -2.15743906E-04  7.12851654E-02 -1.64437544E-01 -7.22485118E-03  1.22619558E-02
 -2.94890980E-02 -1.41886425E-01 -4.08056718E-03  6.13466378E-03 -1.77571429E-02
 -5.37296411E-03  5.67975098E-04 -4.72739678E-03 -2.90723647E-03 -5.04967931E-03
 -5.23004764E-03 -9.15201549E-03  5.20920050E-04 -1.55519510E-03  3.11780019E-03
 -3.97211838E-06  8.60782354E-06 -1.49405835E-02  7.36445922E-02 -1.47590924E-01
 -4.44227393E-06  2.16878607E-03 -1.06755307E-02  2.13919581E-02  5.30659254E-06
  3.23327902E-04 -1.59037887E-03  3.18994949E-03 -5.06843942E-03  1.09298935E-02
 -5.86214548E-03 -5.36706855E-03  1.22544146E-02 -2.33939423E-02  1.31407435E-01
 -3.03141869E-01 -2.04774717E-02  2.37070698E-02  4.64792935E-02 -2.61519963E-01
 -1.20691861E-02  1.43707559E-02  2.61147055E-02 -9.92405912E-03 -7.79708060E-04
  2.78483150E-03 -4.30400749E-03 -9.90786706E-03 -1.02490864E-02 -1.56890673E-02
  1.71168525E-03  3.59489449E-03 -4.14804275E-03  2.24166806E-02 -5.17116966E-02
 -6.18044871E-03 -3.06631058E-03 -1.57101817E-02 -4.46140235E-02 -3.71655641E-03
 -1.27135423E-03 -1.02178072E-02 -1.69108803E-03 -5.83939958E-04  2.42196725E-03
 -5.14989760E-03 -2.08982414E-03 -1.27431434E-03 -2.74729760E-03 -6.21000763E-04
 -1.59532065E-03 -2.36359363E-03  2.65179584E-02 -6.11743806E-02  1.16630812E-02
  4.86549005E-03 -1.29882354E-02 -5.27747569E-02  6.70892825E-03  3.36240457E-03
 -8.62896085E-03 -2.00231776E-03 -3.42112983E-04  2.53028119E-03 -5.11326927E-03
 -3.91802857E-03 -1.57198297E-03 -1.74360740E-03 -9.29141930E-04  2.55472543E-03
 -1.69761298E-04 -1.80360468E-01  4.16050372E-01  2.13667028E-02 -5.69086314E-02
  4.51494833E-02  3.58989212E-01  1.23791085E-02 -3.27335587E-02  2.53429747E-02
  1.36015584E-02 -2.10590110E-04  1.69132650E-03 -4.32499786E-03  1.29388804E-02
  1.94912041E-02  1.67394697E-02 -3.30574154E-03  2.62338340E-03 -7.02245265E-03
 -1.45838029E-01  3.53025817E-01  5.09992514E-06 -1.06293999E-05  7.41796830E-06
  1.97601964E-01  8.56319853E-06 -1.52713917E-05 -3.20353458E-06 -1.46878747E-02
  2.85818743E-06 -5.89545402E-06  2.17337409E-07 -6.75689574E-03 -6.75943464E-03
 -6.76089061E-03  8.69043523E-07 -9.80148578E-08  1.59230570E-06  6.07200517E-02
 -1.45054218E-01  6.71811456E-02 -6.05304101E-02 -2.07993447E-01 -1.69780542E-01
  3.65958493E-02 -3.29711568E-02 -1.13298208E-01 -2.40789833E-02 -5.47774205E-04
  4.93602043E-04  1.69404583E-03 -7.28382934E-03 -7.61621536E-03  7.89756406E-03
 -1.83964069E-03 -6.32256439E-03  5.69603644E-03  6.07196246E-02 -1.45048236E-01
  1.00161462E-01  1.95047609E-01  5.80113701E-02 -1.69791357E-01  5.45582615E-02
  1.06243304E-01  3.15996068E-02 -2.40955191E-02 -8.18274952E-04 -1.59212079E-03
 -4.74962011E-04 -5.11696336E-03  5.85610523E-03 -7.72995172E-03  8.83714191E-03
  2.62862250E-03  5.11821864E-03  6.07181885E-02 -1.45048754E-01 -2.25172063E-01