
Running Job 1 of 1 ddtraj1t34.inp
qchem ddtraj1t34.inp_31166.0 /scratch/qchem/qchem31166/ 1
/mnt/software/qchem/bin/mpi/mpirun_qchem -machinefile /mnt/software/qchem/bin/mpi/machines -np 1 /mnt/software/qchem/exe/qcprog.exe ddtraj1t34.inp_31166.0 /scratch/qchem/qchem31166/

Process 0 of 1 is on tp-linux1 - thread support 0
initial socket setup ...start
initial socket setup ...done 
now start server 0 ... 

cmd = ssh tp-linux1 /mnt/software/qchem/bin/get_hostid 2117237606 > /scratch/qchem/qchem31166/lic.dat
                  Welcome to Q-Chem
     A Quantum Leap Into The Future Of Chemistry


 Q-Chem 4.3, Q-Chem, Inc., Pleasanton, CA (2015)

 Y. Shao,  Z. Gan,  E. Epifanovsky,  A. T. B. Gilbert,  M. Wormit,  
 J. Kussmann,  A. W. Lange,  A. Behn,  J. Deng,  X. Feng,  D. Ghosh,  
 M. Goldey,  P. R. Horn,  L. D. Jacobson,  I. Kaliman,  R. Z. Khaliullin,  
 T. Kus,  A. Landau,  J. Liu,  E. I. Proynov,  Y. M. Rhee,  R. M. Richard,  
 M. A. Rohrdanz,  R. P. Steele,  E. J. Sundstrom,  H. L. Woodcock III,  
 P. M. Zimmerman,  D. Zuev,  B. Albrecht,  E. Alguire,  B. Austin,  
 S. A. Baeppler,  G. J. O. Beran,  Y. A. Bernard,  E. Berquist,  
 K. Brandhorst,  K. B. Bravaya,  S. T. Brown,  D. Casanova,  C.-M. Chang,  
 Y. Chen,  S. H. Chien,  K. D. Closser,  D. L. Crittenden,  M. Diedenhofen,  
 R. A. DiStasio Jr.,  H. Do,  A. D. Dutoi,  R. G. Edgar,  P.-T. Fang,  
 S. Fatehi,  Q. Feng,  L. Fusti-Molnar,  A. Ghysels,  
 A. Golubeva-Zadorozhnaya,  J. Gomes,  A. Gunina,  M. W. D. Hanson-Heine,  
 P. H. P. Harbach,  A. W. Hauser,  E. G. Hohenstein,  Z. C. Holden,  K. Hui,  
 T.-C. Jagau,  H. Ji,  B. Kaduk,  K. Khistyaev,  Jaehoon Kim,  Jihan Kim,  
 R. A. King,  P. Klunzinger,  D. Kosenkov,  T. Kowalczyk,  C. M. Krauter,  
 K. U. Lao,  A. Laurent,  K. V. Lawler,  S. Lehtola,  S. V. Levchenko,  
 C. Y. Lin,  Y.-S. Lin,  F. Liu,  E. Livshits,  R. C. Lochan,  A. Luenser,  
 P. Manohar,  S. F. Manzer,  S.-P. Mao,  N. Mardirossian,  A. V. Marenich,  
 L. A. Martinez-Martinez,  S. A. Maurer,  N. J. Mayhall,  K. Nanda,  
 C. M. Oana,  R. Olivares-Amaya,  D. P. O'Neill,  J. A. Parkhill,  
 T. M. Perrine,  R. Peverati,  P. A. Pieniazek,  F. Plasser,  A. Prociuk,  
 D. R. Rehn,  E. Rosta,  N. J. Russ,  N. Sergueev,  S. M. Sharada,  
 S. Sharma,  D. W. Small,  A. Sodt,  T. Stauch,  T. Stein,  D. Stuck,  
 Y.-C. Su,  A. J. W. Thom,  T. Tsuchimochi,  L. Vogt,  O. Vydrov,  T. Wang,  
 M. A. Watson,  J. Wenzel,  A. White,  C. F. Williams,  V. Vanovschi,  
 S. Yeganeh,  S. R. Yost,  Z.-Q. You,  I. Y. Zhang,  X. Zhang,  Y. Zhao,  
 B. R. Brooks,  G. K. L. Chan,  D. M. Chipman,  C. J. Cramer,  
 W. A. Goddard III,  M. S. Gordon,  W. J. Hehre,  A. Klamt,  
 H. F. Schaefer III,  M. W. Schmidt,  C. D. Sherrill,  D. G. Truhlar,  
 A. Warshel,  X. Xu,  A. Aspuru-Guzik,  R. Baer,  A. T. Bell,  N. A. Besley,  
 J.-D. Chai,  A. Dreuw,  B. D. Dunietz,  T. R. Furlani,  S. R. Gwaltney,  
 C.-P. Hsu,  Y. Jung,  J. Kong,  D. S. Lambrecht,  W. Liang,  C. Ochsenfeld,  
 V. A. Rassolov,  L. V. Slipchenko,  J. E. Subotnik,  T. Van Voorhis,  
 J. M. Herbert,  A. I. Krylov,  P. M. W. Gill,  M. Head-Gordon

 Contributors to earlier versions of Q-Chem not listed above: 
 R. D. Adamson,  J. Baker,  E. F. C. Byrd,  A. K. Chakraborty,  C.-L. Cheng,  
 H. Dachsel,  R. J. Doerksen,  G. Hawkins,  A. Heyden,  S. Hirata,  
 G. Kedziora,  F. J. Keil,  C. Kelley,  P. P. Korambath,  W. Kurlancheek,  
 A. M. Lee,  M. S. Lee,  D. Liotard,  I. Lotan,  P. E. Maslen,  N. Nair,  
 D. Neuhauser,  R. Olson,  B. Peters,  J. Ritchie,  N. E. Schultz,  
 N. Shenvi,  A. C. Simmonett,  K. S. Thanthiriwatte,  Q. Wu,  W. Zhang

 Please cite Q-Chem as follows:
 Y. Shao et al., Mol. Phys. 113, 184-215 (2015)
 DOI: 10.1080/00268976.2014.952696

 Q-Chem 4.3.0 for Intel X86 Linux

 Parts of Q-Chem use Armadillo 5.200.1 (Boston Tea Smuggler).
 http://arma.sourceforge.net/

 Q-Chem begins on Wed Mar 22 13:52:24 2017  

Host: 
0

     Scratch files written to /scratch/qchem/qchem31166//
 Nov1815 1189b_ 19540  19532 5443   
 Parallel job on  1  processors
Processing $rem in /mnt/software/qchem/config/preferences.
 MEM_TOTAL  2000 

Checking the input file for inconsistencies... 	...done.

--------------------------------------------------------------
User input:
--------------------------------------------------------------
$comment
XAS calculation for valence excited states for CF4+ using cvs-adc(2) + 6-31G* basis set
job 1 - determination of HF orbitals
$end

$molecule
1 2
6  -0.564574  2.724406  -0.150101
9  0.645487  2.53636  -0.079239
9  -1.060137  3.465577  0.692231
9  -1.424616  0.371885  0.766529
9  -1.043207  2.788173  -1.284713
$end

$comment
cvs-adc(2) calculation
$end

$rem
mem_total 3000
mem_static 1500
sym_ignore true
method cvs-adc(2)
basis 6-31G*
ee_singlets 20
cc_rest_occ 5                  !only excitations from the lowest N orbitals
unrestricted  true
max_scf_cycles 200
SCF_ALGORITHM = DIIS_GDM
SCF_CONVERGENCE = 7
THRESH = 10
$end
--------------------------------------------------------------
 ----------------------------------------------------------------
             Standard Nuclear Orientation (Angstroms)
    I     Atom           X                Y                Z
 ----------------------------------------------------------------
    1      C      -0.5645740000     2.7244060000    -0.1501010000
    2      F       0.6454870000     2.5363600000    -0.0792390000
    3      F      -1.0601370000     3.4655770000     0.6922310000
    4      F      -1.4246160000     0.3718850000     0.7665290000
    5      F      -1.0432070000     2.7881730000    -1.2847130000
 ----------------------------------------------------------------
 Nuclear Repulsion Energy =   182.9645153620 hartrees
 There are       21 alpha and       20 beta electrons
 Requested basis set is 6-31G(d)
 There are 20 shells and 75 basis functions

 Total QAlloc Memory Limit   3000 MB
 Mega-Array Size      1467 MB
 MEM_STATIC part      1500 MB

                       Distance Matrix (Angstroms)
             C (  1)   F (  2)   F (  3)   F (  4)
   F (  2)  1.226634
   F (  3)  1.226556  2.089919
   F (  4)  2.667253  3.112170  3.115974
   F (  5)  1.233086  2.090039  2.089849  3.192415
 
 tim1(1): 
  0.000000000000000E+000
 tim1(2): 
  0.000000000000000E+000
 A cutoff of  1.0D-10 yielded    189 shell pairs
 There are      2898 function pairs
 
 -------------------------------------------------------
 OpenMP Integral Computing Module                       
 Release: version 1.0, May 2013, Q-Chem Inc. Pittsburgh 
 -------------------------------------------------------
 Integral Job Info:
 Integral job number is                      11
 Integral operator is                         1
 short-range coefficients                     0
 long-range coefficients              100000000
 Omega coefficients                           0
 if combine SR and LR in K                    0
 Integral screening is                        0
 Integral computing path is                   2
 max size of driver memory is            800000
 size of driver memory is                593474
 size of scratch memory is              2260544
 max col of scratch BK array               1296
 max len of scratch array in speh3          155
 max len of scratch index in speh4           18
 max int batch size is                      520
 min int batch size is                       52
 fixed nKL is                                52
 max L of basis functions is                  2
 order of int derivative is                   0
 number of shells is                         20
 number of basis is                          75
 number of cartesian basis is                75
 number of contracted shell pairs           189
 number of primitive shell pairs            955
 maxK2 (contraction) of shell pair           36
 max number of K2 of shell pair               1
 max number of CS2 of shell pair             32
 max number of PS2 of shell pair            192
 mem total for path MDJ                   18100
 -------------------------------------------------------
 Smallest overlap matrix eigenvalue = 3.45E-03

 Scale SEOQF with 1.000000e+00/1.000000e-01/1.000000e+00

 Standard Electronic Orientation quadrupole field applied
 Nucleus-field energy     =     0.0000000094 hartrees
 Guess from superposition of atomic densities
 Warning:  Energy on first SCF cycle will be non-variational
 An unrestricted Hartree-Fock SCF calculation will be
 performed using Pulay DIIS + Geometric Direct Minimization
 SCF converges when RMS gradient is below 1.0E-07
 ---------------------------------------
  Cycle       Energy         DIIS Error
 ---------------------------------------
    1    -436.3371143834      9.03E-02
    2    -434.9628354917      1.80E-02
    3    -435.1193601570      8.67E-03 Done DIIS. Switching to GDM
    4    -435.1537884850      9.27E-03 Normal BFGS step
    5    -435.1548936527      9.25E-03 Normal BFGS step
    6    -435.1552840477      2.98E-03 Normal BFGS step
    7    -435.1553206760      2.96E-03 Normal BFGS step
    8    -435.1553392490      2.91E-03 Normal BFGS step
    9    -435.1553695724      2.76E-03 Normal BFGS step
   10    -435.1554248755      2.41E-03 Normal BFGS step
   11    -435.1555135681      2.33E-03 Normal BFGS step
   12    -435.1556038652      2.16E-03 Normal BFGS step
   13    -435.1556486660      1.04E-03 Normal BFGS step
   14    -435.1556567957      2.22E-04 Normal BFGS step
   15    -435.1556573503      8.70E-05 Normal BFGS step
   16    -435.1556574008      4.23E-05 Normal BFGS step
   17    -435.1556574093      1.84E-05 Normal BFGS step
   18    -435.1556574119      1.69E-05 Normal BFGS step
   19    -435.1556574133      1.69E-05 Normal BFGS step
   20    -435.1556574139      1.69E-05 Normal BFGS step
   21    -435.1556574153      1.69E-05 Normal BFGS step
   22    -435.1556574177      2.21E-05 Normal BFGS step
   23    -435.1556574240      4.04E-05 Normal BFGS step
   24    -435.1556574396      6.84E-05 Normal BFGS step
   25    -435.1556574810      1.14E-04 Normal BFGS step
   26    -435.1556575887      1.89E-04 Normal BFGS step
   27    -435.1556578603      3.10E-04 Normal BFGS step
   28    -435.1556582747      5.10E-04 Normal BFGS step
   29    -435.1556589994      4.80E-04 Normal BFGS step
   30    -435.1556619155      9.77E-04 Normal BFGS step
   31    -435.1556532131      4.87E-03 Line search: overstep
   32    -435.1556625662      3.10E-04 Normal BFGS step
   33    -435.1556632582      3.31E-04 Normal BFGS step
   34    -435.1556579191      7.47E-03 Line search: overstep
   35    -435.1556644487      5.09E-04 Dog-leg BFGS step
   36    -435.1556662282      9.51E-04 Normal BFGS step
   37    -435.1556671375      4.01E-04 Normal BFGS step
   38    -435.1556690645      7.46E-04 Normal BFGS step
   39    -435.1556700839      5.35E-04 Normal BFGS step
   40    -435.1556710355      7.72E-04 Normal BFGS step
   41    -435.1556732911      2.65E-04 Normal BFGS step
   42    -435.1556640645      7.90E-03 Line search: overstep
   43    -435.1556737661      2.39E-04 Dog-leg BFGS step
   44    -435.1556744502      1.13E-03 Normal BFGS step
   45    -435.1556754283      1.51E-04 Normal BFGS step
   46    -435.1556760224      2.02E-04 Normal BFGS step
   47    -435.1556701635      6.78E-03 Line search: overstep
   48    -435.1556765999      3.60E-04 Dog-leg BFGS step
   49    -435.1556768224      1.14E-03 Normal BFGS step
   50    -435.1556778264      1.96E-04 Normal BFGS step
   51    -435.1556783185      1.78E-04 Normal BFGS step
   52    -435.1556760826      4.79E-03 Line search: overstep
   53    -435.1556790074      3.31E-04 Normal BFGS step
   54    -435.1556792828      9.45E-04 Normal BFGS step
   55    -435.1556801370      7.24E-05 Normal BFGS step
   56    -435.1556804896      8.46E-05 Normal BFGS step
   57    -435.1556800084      2.55E-03 Line search: overstep
   58    -435.1556808049      2.38E-04 Normal BFGS step
   59    -435.1556810244      3.42E-04 Normal BFGS step
   60    -435.1556811985      6.28E-05 Normal BFGS step
   61    -435.1556812660      8.02E-05 Normal BFGS step
   62    -435.1556813069      9.12E-05 Normal BFGS step
   63    -435.1556813540      9.63E-05 Normal BFGS step
   64    -435.1556814315      9.92E-05 Normal BFGS step
   65    -435.1556815838      8.72E-05 Normal BFGS step
   66    -435.1556816709      2.03E-04 Normal BFGS step
   67    -435.1556818259      1.83E-04 Normal BFGS step
   68    -435.1556818976      5.22E-05 Normal BFGS step
   69    -435.1556819264      2.64E-05 Normal BFGS step
   70    -435.1556819374      2.02E-05 Normal BFGS step
   71    -435.1556819429      2.33E-05 Normal BFGS step
   72    -435.1556819460      2.18E-05 Normal BFGS step
   73    -435.1556819509      1.39E-05 Normal BFGS step
   74    -435.1556819533      9.95E-06 Normal BFGS step
   75    -435.1556819545      7.82E-06 Normal BFGS step
   76    -435.1556819550      3.70E-06 Normal BFGS step
   77    -435.1556819551      1.19E-06 Normal BFGS step
   78    -435.1556819551      3.61E-07 Normal BFGS step
   79    -435.1556819551      1.67E-07 Normal BFGS step
   80    -435.1556819551      8.34E-08 Convergence criterion met
 ---------------------------------------
 <S^2> = 0.7533
 SCF time:  CPU 9.70 s  wall 14.30 s
 SCF   energy in the final basis set = -435.1556819551
 Total energy in the final basis set = -435.1556819551
================================================================================
|                                                                              |
|                                 A D C  M A N                                 |
|                                                                              |
 ------------------------------------------------------------------------------ 
|                                                                              |
| Components:                                                                  |
|                                                                              |
| - libvmm - 1.2-release                                                       |
|   Authors:                                                                   |
|   Evgeny Epifanovsky, Ilya Kaliman                                           |
|                                                                              |
| - libtensor - 2.4-trunk                                                      |
|   Authors:                                                                   |
|   Evgeny Epifanovsky, Michael Wormit, Dmitry Zuev, Sam Manzer                |
|                                                                              |
| - libwfa - 1.1-beta                                                          |
|   Authors:                                                                   |
|   Felix Plasser, Stefanie Baeppler, Benjamin Thomitzni, Michael Wormit       |
|                                                                              |
| - libadc - 1.0-beta                                                          |
|   Authors:                                                                   |
|   Michael Wormit, Philipp H. P. Harbach, Caroline Krauter, Dirk Rehn,        |
|   Matthias Schneider, Jan Wenzel                                             |
|                                                                              |
| - adcman - 2.4-beta                                                          |
|   Authors:                                                                   |
|   Michael Wormit, Philipp H. P. Harbach, Caroline Krauter, Dirk Rehn,        |
|   Jan Wenzel, Andreas Dreuw                                                  |
|                                                                              |
| Authors of earlier versions of ADCMAN:                                       |
| Andreas Dreuw, Jan Hendrik Starcke, Dirk Rehn, Michael Wormit                |
|                                                                              |
================================================================================

 
 Alpha MOs, Unrestricted
 -- Occupied --                  
-26.741 -26.741 -26.738 -26.631 -11.955  -2.163  -2.054  -2.049
  1 A     2 A     3 A     4 A     5 A     6 A     7 A     8 A                  
 -1.879  -1.320  -1.232  -1.231  -1.180  -1.066  -1.065  -1.046
  9 A    10 A    11 A    12 A    13 A    14 A    15 A    16 A                  
 -1.035  -1.033  -1.014  -0.939  -0.937
 17 A    18 A    19 A    20 A    21 A                                          
 -- Virtual --                   
 -0.247   0.081   0.170   0.172   0.361   0.399   0.403   0.421
 22 A    23 A    24 A    25 A    26 A    27 A    28 A    29 A                  
  0.939   1.014   1.016   1.026   1.075   1.084   1.172   1.218
 30 A    31 A    32 A    33 A    34 A    35 A    36 A    37 A                  
  1.229   1.286   1.287   1.300   1.303   1.314   1.420   1.532
 38 A    39 A    40 A    41 A    42 A    43 A    44 A    45 A                  
  1.649   1.650   1.731   1.743   1.785   1.791   1.806   1.826
 46 A    47 A    48 A    49 A    50 A    51 A    52 A    53 A                  
  1.845   1.875   1.922   1.962   1.986   1.993   2.001   2.086
 54 A    55 A    56 A    57 A    58 A    59 A    60 A    61 A                  
  2.111   2.528   2.597   2.605   2.935   2.938   3.172   3.174
 62 A    63 A    64 A    65 A    66 A    67 A    68 A    69 A                  
  3.217   3.621   4.267   4.615   4.624   4.796
 70 A    71 A    72 A    73 A    74 A    75 A                                  
 
 Beta MOs, Unrestricted
 -- Occupied --                  
-26.741 -26.741 -26.738 -26.582 -11.955  -2.163  -2.054  -2.049
  1 A     2 A     3 A     4 A     5 A     6 A     7 A     8 A                  
 -1.685  -1.320  -1.232  -1.231  -1.180  -1.066  -1.065  -1.036
  9 A    10 A    11 A    12 A    13 A    14 A    15 A    16 A                  
 -1.033  -1.014  -0.885  -0.884
 17 A    18 A    19 A    20 A                                                  
 -- Virtual --                   
 -0.246  -0.126   0.081   0.170   0.176   0.365   0.400   0.406
 21 A    22 A    23 A    24 A    25 A    26 A    27 A    28 A                  
  0.422   0.962   1.014   1.016   1.031   1.086   1.089   1.232
 29 A    30 A    31 A    32 A    33 A    34 A    35 A    36 A                  
  1.250   1.286   1.287   1.297   1.303   1.314   1.375   1.421
 37 A    38 A    39 A    40 A    41 A    42 A    43 A    44 A                  
  1.545   1.649   1.650   1.744   1.747   1.785   1.809   1.821
 45 A    46 A    47 A    48 A    49 A    50 A    51 A    52 A                  
  1.874   1.922   1.933   1.937   1.988   1.989   2.003   2.014
 53 A    54 A    55 A    56 A    57 A    58 A    59 A    60 A                  
  2.085   2.123   2.530   2.597   2.605   2.935   2.939   3.172
 61 A    62 A    63 A    64 A    65 A    66 A    67 A    68 A                  
  3.174   3.219   3.659   4.268   4.616   4.624   4.797
 69 A    70 A    71 A    72 A    73 A    74 A    75 A                          
 

--------------------------------------------------------------------------------
                                   HF Summary                                   
--------------------------------------------------------------------------------
  Energy:                                                 -435.1556819551 a.u.
  Dip. moment [a.u.]:                  [ -54.259595,  181.839258,    0.082495]
  Total dipole [Debye]:                                             482.327050
  <r^2> [a.u.]:                        [ 170.350400,  996.626972,  103.509930]
  Total <r^2> [a.u.]:                                              1270.487302
--------------------------------------------------------------------------------

--------------------------------------------------------------------------------
                                 MP(2) Summary                                  
--------------------------------------------------------------------------------
  Energy contribution:                                      -0.7458522503 a.u.
  Total energy:                                           -435.9015342054 a.u.
  Dip. moment [a.u.]:                  [ -54.300470,  181.734009,    0.118982]
  Total dipole [Debye]:                                             482.100489
  <r^2> [a.u.]:                        [ 170.182356,  995.529585,  103.215419]
  Total <r^2> [a.u.]:                                              1268.927360
--------------------------------------------------------------------------------
  Starting Davidson ... 
--------------------------------------------------------------------------------
   It NVec Conv  Avg. Norm  Max. Norm  Conv. states           Remark
--------------------------------------------------------------------------------
        20    0  2.079e-01  1.130e+00 10.9512 n n n n n n n n Guess.
    1   40    0  5.342e-02  8.741e-01 10.7854 n n n n n n n n 
    2   60    0  1.150e-02  1.687e-01 10.7839 n n n n n n n n 
    3   80    0  3.261e-03  4.345e-02 10.7838 n n n n n n n n 
    4  100    0  1.597e-03  2.018e-02 10.7838 n n n n n n n n 
    5   40    0  1.254e-03  1.973e-02 10.7838 n n n n n n n n Subspace collapsed.
    6   60    0  1.992e-03  2.953e-02 10.7838 n n n n n n n n 
    7   80    0  5.082e-03  9.737e-02 10.7838 n n n n n n n n 
    8  100    3  6.633e-03  1.314e-01 10.7838 y y n y n n n n 
    9   40    9  3.313e-03  6.554e-02 10.7838 y y y y y y y y Subspace collapsed.
   10   60    9  2.728e-03  5.367e-02 10.7838 y y y y y y y y 
   11   80   10  1.666e-03  3.213e-02 10.7838 y y y y y y y y 
   12  100   12  1.534e-03  2.814e-02 10.7838 y y y y y y y y 
   13   40   15  1.111e-03  1.856e-02 10.7838 y y y y y y y y Subspace collapsed.
   14   60   16  1.213e-03  1.758e-02 10.7838 y y y y y y y y 
   15   80   17  1.090e-03  1.944e-02 10.7838 y y y y y y y y 
   16  100   17  1.147e-03  2.190e-02 10.7838 y y y y y y y y 
   17   39   17  6.798e-04  1.295e-02 10.7838 y y y y y y y y Subspace collapsed.
   18   40   17  6.800e-04  1.295e-02 10.7838 y y y y y y y y 
   19   41   17  6.803e-04  1.295e-02 10.7838 y y y y y y y y 
   20   42   17  6.806e-04  1.296e-02 10.7838 y y y y y y y y 
   21   44   17  6.768e-04  1.288e-02 10.7838 y y y y y y y y 
   22   59   17  6.031e-04  1.152e-02 10.7838 y y y y y y y y 
   23   72   17  4.315e-04  8.200e-03 10.7838 y y y y y y y y 
   24   83   17  4.669e-04  9.020e-03 10.7838 y y y y y y y y 
   25   94   17  9.349e-04  1.854e-02 10.7838 y y y y y y y y 
   26  100   17  9.415e-04  1.867e-02 10.7838 y y y y y y y y 
   27   31   17  4.149e-04  8.223e-03 10.7838 y y y y y y y y Subspace collapsed.
   28   42   17  3.015e-04  5.986e-03 10.7838 y y y y y y y y 
   29   53   17  2.761e-04  5.482e-03 10.7838 y y y y y y y y 
   30   55   17  2.757e-04  5.474e-03 10.7838 y y y y y y y y 
   31   57   17  2.746e-04  5.453e-03 10.7838 y y y y y y y y 
   32   58   17  2.744e-04  5.448e-03 10.7838 y y y y y y y y 
   33   59   17  2.751e-04  5.462e-03 10.7838 y y y y y y y y 
   34   59   17  2.751e-04  5.462e-03 10.7838 y y y y y y y y 
   35   79   17  2.822e-04  5.617e-03 10.7838 y y y y y y y y 
   36   79   17  2.822e-04  5.617e-03 10.7838 y y y y y y y y 
   37   79   17  2.822e-04  5.617e-03 10.7838 y y y y y y y y 
   38   99   17  4.227e-04  8.439e-03 10.7838 y y y y y y y y 
   39  100   17  4.224e-04  8.432e-03 10.7838 y y y y y y y y 
   40   24   17  2.423e-04  4.836e-03 10.7838 y y y y y y y y Subspace collapsed.
   41   28   17  2.201e-04  4.391e-03 10.7838 y y y y y y y y 
   42   28   17  2.201e-04  4.391e-03 10.7838 y y y y y y y y 
   43   29   17  2.201e-04  4.392e-03 10.7838 y y y y y y y y 
   44   29   17  2.201e-04  4.392e-03 10.7838 y y y y y y y y 
   45   29   17  2.201e-04  4.392e-03 10.7838 y y y y y y y y 
   46   49   17  2.314e-04  4.622e-03 10.7838 y y y y y y y y 
   47   52   17  2.393e-04  4.781e-03 10.7838 y y y y y y y y 
   48   55   17  4.131e-04  8.257e-03 10.7838 y y y y y y y y 
   49   58   17  5.493e-04  1.098e-02 10.7838 y y y y y y y y 
   50   61   17  3.593e-04  7.184e-03 10.7838 y y y y y y y y 
   51   64   17  2.733e-04  5.465e-03 10.7838 y y y y y y y y 
   52   67   17  2.301e-04  4.600e-03 10.7838 y y y y y y y y 
   53   70   17  1.485e-04  2.969e-03 10.7838 y y y y y y y y 
   54   73   17  8.095e-05  1.617e-03 10.7838 y y y y y y y y 
   55   76   17  4.589e-05  9.159e-04 10.7838 y y y y y y y y 
   56   79   17  3.486e-05  6.950e-04 10.7838 y y y y y y y y 
   57   82   17  2.193e-05  4.372e-04 10.7838 y y y y y y y y 
   58   85   17  1.263e-05  2.518e-04 10.7838 y y y y y y y y 
   59   88   17  1.242e-05  2.479e-04 10.7838 y y y y y y y y 
--------------------------------------------------------------------------------
  Davidson Summary: 
 ------------------------------------------------------------
  State  0: excitation energy =  10.7838 a.u.   (converged)
  State  1: excitation energy =  10.8552 a.u.   (converged)
  State  2: excitation energy =  11.1826 a.u.   (converged)
  State  3: excitation energy =  11.1996 a.u.   (converged)
  State  4: excitation energy =  11.2045 a.u.   (converged)
  State  5: excitation energy =  11.2116 a.u.   (converged)
  State  6: excitation energy =  11.2478 a.u.   (converged)
  State  7: excitation energy =  11.2813 a.u.   (converged)
  State  8: excitation energy =  11.2876 a.u.   (converged)
  State  9: excitation energy =  11.5451 a.u.   (converged)
  State 10: excitation energy =  11.5637 a.u.   (converged)
  State 11: excitation energy =  11.5698 a.u.   (converged)
  State 12: excitation energy =  11.5710 a.u.   (converged)
  State 13: excitation energy =  11.5838 a.u.   (converged)
  State 14: excitation energy =  11.5869 a.u.   (converged)
  State 15: excitation energy =  11.5873 a.u.   (converged)
  State 16: excitation energy =  11.6068 a.u.   (converged)
  State 17: excitation energy =  12.2247 a.u.   (not converged)
  State 18: excitation energy =  12.2271 a.u.   (not converged)
  State 19: excitation energy =  12.2299 a.u.   (not converged)
 ------------------------------------------------------------


--------------------------------------------------------------------------------
                             Excited State Summary
--------------------------------------------------------------------------------

  Excited state  1 (A)                                             [converged]
  ----------------------------------------------------------------------------
  Term symbol:  2 (-) A                                     R^2 =  2.81321e-14

  Total energy:                                           -425.1176993583 a.u.
  Excitation energy:                                             293.443070 eV

  Osc. strength:                                                      0.000001
  Trans. dip. moment [a.u.]:           [   0.000120,    0.000306,   -0.000104]
  <i|r^2|0> [a.u.]:                    [  -0.000273,    0.003103,    0.000042]

  V1^2 = 0.9573, V2^2 = 0.0427

  Important amplitudes:
     core i     occ j      vir a      vir b          v   
    ------------------------------------------------------
     5 (A) A              22 (A) A                 0.6580
     5 (A) B              21 (A) B                -0.6538
    ------------------------------------------------------
  ----------------------------------------------------------------------------


  Excited state  2 (A)                                             [converged]
  ----------------------------------------------------------------------------
  Term symbol:  3 (-) A                                     R^2 =  2.45101e-14

  Total energy:                                           -425.0462973154 a.u.
  Excitation energy:                                             295.386018 eV

  Osc. strength:                                                      0.097244
  Trans. dip. moment [a.u.]:           [   0.040271,    0.102932,   -0.034937]
  <i|r^2|0> [a.u.]:                    [  -0.093498,    1.048785,    0.012400]

  V1^2 = 0.9523, V2^2 = 0.0477

  Important amplitudes:
     core i     occ j      vir a      vir b          v   
    ------------------------------------------------------
     5 (A) B              21 (A) B                 0.6686
     5 (A) A              22 (A) A                 0.6642
    ------------------------------------------------------
  ----------------------------------------------------------------------------


  Excited state  3 (A)                                             [converged]
  ----------------------------------------------------------------------------
  Term symbol:  4 (-) A                                     R^2 =  5.02307e-14

  Total energy:                                           -424.7189431857 a.u.
  Excitation energy:                                             304.293777 eV

  Osc. strength:                                                      0.000000
  Trans. dip. moment [a.u.]:           [  -0.000077,   -0.000188,    0.000058]
  <i|r^2|0> [a.u.]:                    [   0.000156,   -0.001966,   -0.000041]

  V1^2 = 0.9295, V2^2 = 0.0705

  Important amplitudes:
     core i     occ j      vir a      vir b          v   
    ------------------------------------------------------
     5 (A) A              23 (A) A                -0.5907
     5 (A) B              23 (A) B                 0.5883
    ------------------------------------------------------
  ----------------------------------------------------------------------------


  Excited state  4 (A)                                             [converged]
  ----------------------------------------------------------------------------
  Term symbol:  5 (-) A                                     R^2 =  2.79965e-14

  Total energy:                                           -424.7018854631 a.u.
  Excitation energy:                                             304.757941 eV

  Osc. strength:                                                      0.000156
  Trans. dip. moment [a.u.]:           [  -0.003783,    0.002022,    0.001565]
  <i|r^2|0> [a.u.]:                    [   0.008455,    0.020579,   -0.001037]

  V1^2 = 0.8624, V2^2 = 0.1376

  Important amplitudes:
     core i     occ j      vir a      vir b          v   
    ------------------------------------------------------
     5 (A) B              22 (A) B                -0.8827
     5 (A) B              28 (A) B                -0.1562
    ------------------------------------------------------
  ----------------------------------------------------------------------------


  Excited state  5 (A)                                             [converged]
  ----------------------------------------------------------------------------
  Term symbol:  6 (-) A                                     R^2 =  6.43113e-14

  Total energy:                                           -424.6970285843 a.u.
  Excitation energy:                                             304.890104 eV

  Osc. strength:                                                      0.000000
  Trans. dip. moment [a.u.]:           [  -0.000061,    0.000007,    0.000095]
  <i|r^2|0> [a.u.]:                    [   0.000131,    0.000053,   -0.000058]

  V1^2 = 0.9518, V2^2 = 0.0482

  Important amplitudes:
     core i     occ j      vir a      vir b          v   
    ------------------------------------------------------
     5 (A) B              24 (A) B                 0.5035
     5 (A) A              24 (A) A                -0.5027
    ------------------------------------------------------
  ----------------------------------------------------------------------------


  Excited state  6 (A)                                             [converged]
  ----------------------------------------------------------------------------
  Term symbol:  7 (-) A                                     R^2 =  4.10455e-14

  Total energy:                                           -424.6899153111 a.u.
  Excitation energy:                                             305.083666 eV

  Osc. strength:                                                      0.000025
  Trans. dip. moment [a.u.]:           [  -0.001515,    0.000808,    0.000625]
  <i|r^2|0> [a.u.]:                    [   0.003381,    0.008232,   -0.000415]

  V1^2 = 0.9428, V2^2 = 0.0572

  Important amplitudes:
     core i     occ j      vir a      vir b          v   
    ------------------------------------------------------
     5 (A) A              25 (A) A                -0.4842
     5 (A) B              25 (A) B                 0.4768
    ------------------------------------------------------
  ----------------------------------------------------------------------------


  Excited state  7 (A)                                             [converged]
  ----------------------------------------------------------------------------
  Term symbol:  8 (-) A                                     R^2 =  3.24435e-14

  Total energy:                                           -424.6537336048 a.u.
  Excitation energy:                                             306.068220 eV

  Osc. strength:                                                      0.019092
  Trans. dip. moment [a.u.]:           [   0.013806,    0.043275,   -0.021973]
  <i|r^2|0> [a.u.]:                    [  -0.013724,    0.470604,    0.027292]

  V1^2 = 0.9173, V2^2 = 0.0827

  Important amplitudes:
     core i     occ j      vir a      vir b          v   
    ------------------------------------------------------
     5 (A) B              23 (A) B                 0.6316
     5 (A) A              23 (A) A                 0.6294
    ------------------------------------------------------
  ----------------------------------------------------------------------------


  Excited state  8 (A)                                             [converged]
  ----------------------------------------------------------------------------
  Term symbol:  9 (-) A                                     R^2 =  2.39886e-14

  Total energy:                                           -424.6202562849 a.u.
  Excitation energy:                                             306.979184 eV

  Osc. strength:                                                      0.115251
  Trans. dip. moment [a.u.]:           [   0.058003,    0.017122,    0.108012]
  <i|r^2|0> [a.u.]:                    [  -0.127259,    0.175723,   -0.054164]

  V1^2 = 0.9430, V2^2 = 0.0570

  Important amplitudes:
     core i     occ j      vir a      vir b          v   
    ------------------------------------------------------
     5 (A) A              24 (A) A                 0.5502
     5 (A) B              24 (A) B                 0.5499
    ------------------------------------------------------
  ----------------------------------------------------------------------------


  Excited state  9 (A)                                             [converged]
  ----------------------------------------------------------------------------
  Term symbol:  10 (-) A                                    R^2 =  2.57441e-14

  Total energy:                                           -424.6139538832 a.u.
  Excitation energy:                                             307.150681 eV

  Osc. strength:                                                      0.114926
  Trans. dip. moment [a.u.]:           [   0.100912,   -0.054977,   -0.045462]
  <i|r^2|0> [a.u.]:                    [  -0.222712,   -0.562702,    0.029758]

  V1^2 = 0.9425, V2^2 = 0.0575

  Important amplitudes:
     core i     occ j      vir a      vir b          v   
    ------------------------------------------------------
     5 (A) B              25 (A) B                 0.5508
     5 (A) A              25 (A) A                 0.5434
    ------------------------------------------------------
  ----------------------------------------------------------------------------


  Excited state 10 (A)                                             [converged]
  ----------------------------------------------------------------------------
  Term symbol:  11 (-) A                                    R^2 =  5.34607e-14

  Total energy:                                           -424.3564732809 a.u.
  Excitation energy:                                             314.157085 eV

  Osc. strength:                                                      0.000016
  Trans. dip. moment [a.u.]:           [   0.000501,    0.001271,   -0.000444]
  <i|r^2|0> [a.u.]:                    [  -0.001344,    0.012821,   -0.000024]

  V1^2 = 0.9113, V2^2 = 0.0887

  Important amplitudes:
     core i     occ j      vir a      vir b          v   
    ------------------------------------------------------
     5 (A) A              29 (A) A                -0.6032
     5 (A) B              29 (A) B                 0.5977
    ------------------------------------------------------
  ----------------------------------------------------------------------------


  Excited state 11 (A)                                             [converged]
  ----------------------------------------------------------------------------
  Term symbol:  12 (-) A                                    R^2 =  8.99808e-14

  Total energy:                                           -424.3378529057 a.u.
  Excitation energy:                                             314.663771 eV

  Osc. strength:                                                      0.000109
  Trans. dip. moment [a.u.]:           [   0.001502,    0.003288,   -0.001027]
  <i|r^2|0> [a.u.]:                    [  -0.003736,    0.033363,    0.000064]

  V1^2 = 0.9023, V2^2 = 0.0977

  Important amplitudes:
     core i     occ j      vir a      vir b          v   
    ------------------------------------------------------
     5 (A) A              26 (A) A                -0.6335
     5 (A) B              26 (A) B                 0.5637
    ------------------------------------------------------
  ----------------------------------------------------------------------------


  Excited state 12 (A)                                             [converged]
  ----------------------------------------------------------------------------
  Term symbol:  13 (-) A                                    R^2 =  5.72540e-14

  Total energy:                                           -424.3317789866 a.u.
  Excitation energy:                                             314.829051 eV

  Osc. strength:                                                      0.000319
  Trans. dip. moment [a.u.]:           [  -0.005337,    0.002819,    0.002231]
  <i|r^2|0> [a.u.]:                    [   0.011533,    0.029022,   -0.001408]

  V1^2 = 0.8965, V2^2 = 0.1035

  Important amplitudes:
     core i     occ j      vir a      vir b          v   
    ------------------------------------------------------
     5 (A) A              28 (A) A                -0.5405
     5 (A) A              25 (A) A                 0.4848
    ------------------------------------------------------
  ----------------------------------------------------------------------------


  Excited state 13 (A)                                             [converged]
  ----------------------------------------------------------------------------
  Term symbol:  14 (-) A                                    R^2 =  9.09858e-14

  Total energy:                                           -424.3305374709 a.u.
  Excitation energy:                                             314.862834 eV

  Osc. strength:                                                      0.000055
  Trans. dip. moment [a.u.]:           [  -0.000668,   -0.002494,    0.000634]
  <i|r^2|0> [a.u.]:                    [   0.001669,   -0.025454,   -0.000104]

  V1^2 = 0.8977, V2^2 = 0.1023

  Important amplitudes:
     core i     occ j      vir a      vir b          v   
    ------------------------------------------------------
     5 (A) A              27 (A) A                 0.4690
     5 (A) B              27 (A) B                -0.4687
    ------------------------------------------------------
  ----------------------------------------------------------------------------


  Excited state 14 (A)                                             [converged]
  ----------------------------------------------------------------------------
  Term symbol:  15 (-) A                                    R^2 =  1.87372e-13

  Total energy:                                           -424.3177448021 a.u.
  Excitation energy:                                             315.210940 eV

  Osc. strength:                                                      0.034054
  Trans. dip. moment [a.u.]:           [  -0.036400,   -0.054406,   -0.011172]
  <i|r^2|0> [a.u.]:                    [   0.072189,   -0.566779,   -0.000211]

  V1^2 = 0.9012, V2^2 = 0.0988

  Important amplitudes:
     core i     occ j      vir a      vir b          v   
    ------------------------------------------------------
     5 (A) B              26 (A) B                 0.5226
     5 (A) A              26 (A) A                 0.4510
    ------------------------------------------------------
  ----------------------------------------------------------------------------


  Excited state 15 (A)                                             [converged]
  ----------------------------------------------------------------------------
  Term symbol:  16 (-) A                                    R^2 =  1.31975e-13

  Total energy:                                           -424.3146050976 a.u.
  Excitation energy:                                             315.296376 eV

  Osc. strength:                                                      0.032980
  Trans. dip. moment [a.u.]:           [   0.051656,   -0.028962,   -0.027610]
  <i|r^2|0> [a.u.]:                    [  -0.111429,   -0.298034,    0.017022]

  V1^2 = 0.8999, V2^2 = 0.1001

  Important amplitudes:
     core i     occ j      vir a      vir b          v   
    ------------------------------------------------------
     5 (A) B              28 (A) B                 0.5887
     5 (A) A              28 (A) A                 0.4922
    ------------------------------------------------------
  ----------------------------------------------------------------------------


  Excited state 16 (A)                                             [converged]
  ----------------------------------------------------------------------------
  Term symbol:  17 (-) A                                    R^2 =  2.11643e-13

  Total energy:                                           -424.3142545934 a.u.
  Excitation energy:                                             315.305914 eV

  Osc. strength:                                                      0.030589
  Trans. dip. moment [a.u.]:           [  -0.018264,    0.021321,   -0.056317]
  <i|r^2|0> [a.u.]:                    [   0.046036,    0.226608,    0.037319]

  V1^2 = 0.9003, V2^2 = 0.0997

  Important amplitudes:
     core i     occ j      vir a      vir b          v   
    ------------------------------------------------------
     5 (A) B              27 (A) B                -0.5008
     5 (A) A              27 (A) A                -0.4927
    ------------------------------------------------------
  ----------------------------------------------------------------------------


  Excited state 17 (A)                                             [converged]
  ----------------------------------------------------------------------------
  Term symbol:  18 (-) A                                    R^2 =  5.68794e-13

  Total energy:                                           -424.2947383094 a.u.
  Excitation energy:                                             315.836979 eV

  Osc. strength:                                                      0.007810
  Trans. dip. moment [a.u.]:           [   0.007204,    0.026764,   -0.015526]
  <i|r^2|0> [a.u.]:                    [  -0.038879,    0.251982,   -0.014979]

  V1^2 = 0.9159, V2^2 = 0.0841

  Important amplitudes:
     core i     occ j      vir a      vir b          v   
    ------------------------------------------------------
     5 (A) B              29 (A) B                -0.5597
     5 (A) A              29 (A) A                -0.5285
    ------------------------------------------------------
  ----------------------------------------------------------------------------


  Excited state 18 (A)                                         [not converged]
  ----------------------------------------------------------------------------
  Term symbol:  19 (-) A                                    R^2 =  4.78667e-06

  Total energy:                                           -423.6768614816 a.u.
  Excitation energy:                                             332.650263 eV


  V1^2 = 0.8710, V2^2 = 0.1290

  Important amplitudes:
     core i     occ j      vir a      vir b          v   
    ------------------------------------------------------
     5 (A) A              31 (A) A                 0.6114
     5 (A) B              31 (A) B                -0.5808
    ------------------------------------------------------
  ----------------------------------------------------------------------------


  Excited state 19 (A)                                         [not converged]
  ----------------------------------------------------------------------------
  Term symbol:  20 (-) A                                    R^2 =  2.47910e-04

  Total energy:                                           -423.6743891145 a.u.
  Excitation energy:                                             332.717539 eV


  V1^2 = 0.8710, V2^2 = 0.1290

  Important amplitudes:
     core i     occ j      vir a      vir b          v   
    ------------------------------------------------------
     5 (A) B              32 (A) B                 0.5838
     5 (A) A              32 (A) A                -0.5801
    ------------------------------------------------------
  ----------------------------------------------------------------------------


  Excited state 20 (A)                                         [not converged]
  ----------------------------------------------------------------------------
  Term symbol:  21 (-) A                                    R^2 =  1.42301e-05

  Total energy:                                           -423.6715950661 a.u.
  Excitation energy:                                             332.793569 eV


  V1^2 = 0.8706, V2^2 = 0.1294

  Important amplitudes:
     core i     occ j      vir a      vir b          v   
    ------------------------------------------------------
     5 (A) B              31 (A) B                 0.6011
     5 (A) A              31 (A) A                 0.5578
    ------------------------------------------------------
  ----------------------------------------------------------------------------


--------------------------------------------------------------------------------
  Time of ADC calculation:  CPU 1357.37 s  wall 1387.87 s
================================================================================
 
 --------------------------------------------------------------
 
                    Orbital Energies (a.u.)
 --------------------------------------------------------------
 
 Alpha MOs
 -- Occupied --
-26.741 -26.741 -26.738 -26.631 -11.955  -2.163  -2.054  -2.049
 -1.879  -1.320  -1.232  -1.231  -1.180  -1.066  -1.065  -1.046
 -1.035  -1.033  -1.014  -0.939  -0.937
 -- Virtual --
 -0.247   0.081   0.170   0.172   0.361   0.399   0.403   0.421
  0.939   1.014   1.016   1.026   1.075   1.084   1.172   1.218
  1.229   1.286   1.287   1.300   1.303   1.314   1.420   1.532
  1.649   1.650   1.731   1.743   1.785   1.791   1.806   1.826
  1.845   1.875   1.922   1.962   1.986   1.993   2.001   2.086
  2.111   2.528   2.597   2.605   2.935   2.938   3.172   3.174
  3.217   3.621   4.267   4.615   4.624   4.796
 
 Beta MOs
 -- Occupied --
-26.741 -26.741 -26.738 -26.582 -11.955  -2.163  -2.054  -2.049
 -1.685  -1.320  -1.232  -1.231  -1.180  -1.066  -1.065  -1.036
 -1.033  -1.014  -0.885  -0.884
 -- Virtual --
 -0.246  -0.126   0.081   0.170   0.176   0.365   0.400   0.406
  0.422   0.962   1.014   1.016   1.031   1.086   1.089   1.232
  1.250   1.286   1.287   1.297   1.303   1.314   1.375   1.421
  1.545   1.649   1.650   1.744   1.747   1.785   1.809   1.821
  1.874   1.922   1.933   1.937   1.988   1.989   2.003   2.014
  2.085   2.123   2.530   2.597   2.605   2.935   2.939   3.172
  3.174   3.219   3.659   4.268   4.616   4.624   4.797
 --------------------------------------------------------------
 
          Ground-State Mulliken Net Atomic Charges

     Atom                 Charge (a.u.)    Spin (a.u.)
  --------------------------------------------------------
      1 C                     1.233297      -0.005116
      2 F                    -0.087672      -0.000274
      3 F                    -0.087497      -0.000273
      4 F                     0.035845       1.005930
      5 F                    -0.093974      -0.000267
  --------------------------------------------------------
  Sum of atomic charges =     1.000000
  Sum of spin   charges =     1.000000

 -----------------------------------------------------------------
                    Cartesian Multipole Moments
 -----------------------------------------------------------------
    Charge (ESU x 10^10)
                 4.8032
    Dipole Moment (Debye)
         X      -2.9624      Y      12.3884      Z      -0.4370
       Tot      12.7452
    Quadrupole Moments (Debye-Ang)
        XX     -18.5659     XY      -7.2636     YY      12.7301
        XZ      -0.2410     YZ      -1.6932     ZZ     -20.8406
    Octopole Moments (Debye-Ang^2)
       XXX      41.6894    XXY     -44.4222    XYY      -4.3728
       YYY     -55.2554    XXZ       1.3739    XYZ       0.2547
       YYZ      -4.7521    XZZ      13.5762    YZZ     -48.5925
       ZZZ      -0.5373
    Hexadecapole Moments (Debye-Ang^3)
      XXXX    -134.1214   XXXY      85.6278   XXYY    -154.2940
      XYYY      35.4662   YYYY    -593.7118   XXXZ       2.7624
      XXYZ       7.2866   XYYZ       3.0050   YYYZ       6.6275
      XXZZ     -34.9243   XYZZ      26.5840   YYZZ    -152.6810
      XZZZ       7.0143   YZZZ      16.9670   ZZZZ     -81.1870
 -----------------------------------------------------------------
Archival summary:
1\1\tp-linux1\SP\HF\6-31G*\41(1+,2)\thomas\WedMar2214:15:482017WedMar2214:15:482017\0\\#,HF,6-31G*,\\1,2\C\F,1,1.22656\F,1,1.22663,2,116.842\F,1,1.23309,2,116.348,3,143.701,0\F,1,2.66725,2,99.595,3,-105.715,0\\HF=-435.155682\\@

 Total job time:  1404.11s(wall), 1368.81s(cpu) 
 Wed Mar 22 14:15:48 2017

        *************************************************************
        *                                                           *
        *  Thank you very much for using Q-Chem.  Have a nice day.  *
        *                                                           *
        *************************************************************


0 sent ACK to 0 
now end server 0 ... 
cleanup process ... done
