
Running Job 1 of 1 ddtraj1t33.inp
qchem ddtraj1t33.inp_14272.0 /scratch/qchem/qchem14272/ 1
/mnt/software/qchem/bin/mpi/mpirun_qchem -machinefile /mnt/software/qchem/bin/mpi/machines -np 1 /mnt/software/qchem/exe/qcprog.exe ddtraj1t33.inp_14272.0 /scratch/qchem/qchem14272/

Process 0 of 1 is on tp-linux1 - thread support 0
initial socket setup ...start
initial socket setup ...done 
now start server 0 ... 

cmd = ssh tp-linux1 /mnt/software/qchem/bin/get_hostid 1178950375 > /scratch/qchem/qchem14272/lic.dat
                  Welcome to Q-Chem
     A Quantum Leap Into The Future Of Chemistry


 Q-Chem 4.3, Q-Chem, Inc., Pleasanton, CA (2015)

 Y. Shao,  Z. Gan,  E. Epifanovsky,  A. T. B. Gilbert,  M. Wormit,  
 J. Kussmann,  A. W. Lange,  A. Behn,  J. Deng,  X. Feng,  D. Ghosh,  
 M. Goldey,  P. R. Horn,  L. D. Jacobson,  I. Kaliman,  R. Z. Khaliullin,  
 T. Kus,  A. Landau,  J. Liu,  E. I. Proynov,  Y. M. Rhee,  R. M. Richard,  
 M. A. Rohrdanz,  R. P. Steele,  E. J. Sundstrom,  H. L. Woodcock III,  
 P. M. Zimmerman,  D. Zuev,  B. Albrecht,  E. Alguire,  B. Austin,  
 S. A. Baeppler,  G. J. O. Beran,  Y. A. Bernard,  E. Berquist,  
 K. Brandhorst,  K. B. Bravaya,  S. T. Brown,  D. Casanova,  C.-M. Chang,  
 Y. Chen,  S. H. Chien,  K. D. Closser,  D. L. Crittenden,  M. Diedenhofen,  
 R. A. DiStasio Jr.,  H. Do,  A. D. Dutoi,  R. G. Edgar,  P.-T. Fang,  
 S. Fatehi,  Q. Feng,  L. Fusti-Molnar,  A. Ghysels,  
 A. Golubeva-Zadorozhnaya,  J. Gomes,  A. Gunina,  M. W. D. Hanson-Heine,  
 P. H. P. Harbach,  A. W. Hauser,  E. G. Hohenstein,  Z. C. Holden,  K. Hui,  
 T.-C. Jagau,  H. Ji,  B. Kaduk,  K. Khistyaev,  Jaehoon Kim,  Jihan Kim,  
 R. A. King,  P. Klunzinger,  D. Kosenkov,  T. Kowalczyk,  C. M. Krauter,  
 K. U. Lao,  A. Laurent,  K. V. Lawler,  S. Lehtola,  S. V. Levchenko,  
 C. Y. Lin,  Y.-S. Lin,  F. Liu,  E. Livshits,  R. C. Lochan,  A. Luenser,  
 P. Manohar,  S. F. Manzer,  S.-P. Mao,  N. Mardirossian,  A. V. Marenich,  
 L. A. Martinez-Martinez,  S. A. Maurer,  N. J. Mayhall,  K. Nanda,  
 C. M. Oana,  R. Olivares-Amaya,  D. P. O'Neill,  J. A. Parkhill,  
 T. M. Perrine,  R. Peverati,  P. A. Pieniazek,  F. Plasser,  A. Prociuk,  
 D. R. Rehn,  E. Rosta,  N. J. Russ,  N. Sergueev,  S. M. Sharada,  
 S. Sharma,  D. W. Small,  A. Sodt,  T. Stauch,  T. Stein,  D. Stuck,  
 Y.-C. Su,  A. J. W. Thom,  T. Tsuchimochi,  L. Vogt,  O. Vydrov,  T. Wang,  
 M. A. Watson,  J. Wenzel,  A. White,  C. F. Williams,  V. Vanovschi,  
 S. Yeganeh,  S. R. Yost,  Z.-Q. You,  I. Y. Zhang,  X. Zhang,  Y. Zhao,  
 B. R. Brooks,  G. K. L. Chan,  D. M. Chipman,  C. J. Cramer,  
 W. A. Goddard III,  M. S. Gordon,  W. J. Hehre,  A. Klamt,  
 H. F. Schaefer III,  M. W. Schmidt,  C. D. Sherrill,  D. G. Truhlar,  
 A. Warshel,  X. Xu,  A. Aspuru-Guzik,  R. Baer,  A. T. Bell,  N. A. Besley,  
 J.-D. Chai,  A. Dreuw,  B. D. Dunietz,  T. R. Furlani,  S. R. Gwaltney,  
 C.-P. Hsu,  Y. Jung,  J. Kong,  D. S. Lambrecht,  W. Liang,  C. Ochsenfeld,  
 V. A. Rassolov,  L. V. Slipchenko,  J. E. Subotnik,  T. Van Voorhis,  
 J. M. Herbert,  A. I. Krylov,  P. M. W. Gill,  M. Head-Gordon

 Contributors to earlier versions of Q-Chem not listed above: 
 R. D. Adamson,  J. Baker,  E. F. C. Byrd,  A. K. Chakraborty,  C.-L. Cheng,  
 H. Dachsel,  R. J. Doerksen,  G. Hawkins,  A. Heyden,  S. Hirata,  
 G. Kedziora,  F. J. Keil,  C. Kelley,  P. P. Korambath,  W. Kurlancheek,  
 A. M. Lee,  M. S. Lee,  D. Liotard,  I. Lotan,  P. E. Maslen,  N. Nair,  
 D. Neuhauser,  R. Olson,  B. Peters,  J. Ritchie,  N. E. Schultz,  
 N. Shenvi,  A. C. Simmonett,  K. S. Thanthiriwatte,  Q. Wu,  W. Zhang

 Please cite Q-Chem as follows:
 Y. Shao et al., Mol. Phys. 113, 184-215 (2015)
 DOI: 10.1080/00268976.2014.952696

 Q-Chem 4.3.0 for Intel X86 Linux

 Parts of Q-Chem use Armadillo 5.200.1 (Boston Tea Smuggler).
 http://arma.sourceforge.net/

 Q-Chem begins on Wed Mar 22 13:27:17 2017  

Host: 
0

     Scratch files written to /scratch/qchem/qchem14272//
 Nov1815 1189b_ 19540  19532 5443   
 Parallel job on  1  processors
Processing $rem in /mnt/software/qchem/config/preferences.
 MEM_TOTAL  2000 

Checking the input file for inconsistencies... 	...done.

--------------------------------------------------------------
User input:
--------------------------------------------------------------
$comment
XAS calculation for valence excited states for CF4+ using cvs-adc(2) + 6-31G* basis set
job 1 - determination of HF orbitals
$end

$molecule
1 2
6  -0.555894  2.747043  -0.158188
9  0.63608  2.523061  -0.074062
9  -1.063517  3.448934  0.694702
9  -1.413477  0.402999  0.753931
9  -1.047041  2.772703  -1.274655
$end

$comment
cvs-adc(2) calculation
$end

$rem
mem_total 3000
mem_static 1500
sym_ignore true
method cvs-adc(2)
basis 6-31G*
ee_singlets 20
cc_rest_occ 5                  !only excitations from the lowest N orbitals
unrestricted  true
max_scf_cycles 200
SCF_ALGORITHM = DIIS_GDM
SCF_CONVERGENCE = 7
THRESH = 10
$end
--------------------------------------------------------------
 ----------------------------------------------------------------
             Standard Nuclear Orientation (Angstroms)
    I     Atom           X                Y                Z
 ----------------------------------------------------------------
    1      C      -0.5558940000     2.7470430000    -0.1581880000
    2      F       0.6360800000     2.5230610000    -0.0740620000
    3      F      -1.0635170000     3.4489340000     0.6947020000
    4      F      -1.4134770000     0.4029990000     0.7539310000
    5      F      -1.0470410000     2.7727030000    -1.2746550000
 ----------------------------------------------------------------
 Nuclear Repulsion Energy =   184.5568625798 hartrees
 There are       21 alpha and       20 beta electrons
 Requested basis set is 6-31G(d)
 There are 20 shells and 75 basis functions

 Total QAlloc Memory Limit   3000 MB
 Mega-Array Size      1467 MB
 MEM_STATIC part      1500 MB

                       Distance Matrix (Angstroms)
             C (  1)   F (  2)   F (  3)   F (  4)
   F (  2)  1.215750
   F (  3)  1.215629  2.082515
   F (  4)  2.657433  3.062829  3.066545
   F (  5)  1.219993  2.082460  2.082289  3.140849
 
 tim1(1): 
  0.000000000000000E+000
 tim1(2): 
  0.000000000000000E+000
 A cutoff of  1.0D-10 yielded    190 shell pairs
 There are      2914 function pairs
 
 -------------------------------------------------------
 OpenMP Integral Computing Module                       
 Release: version 1.0, May 2013, Q-Chem Inc. Pittsburgh 
 -------------------------------------------------------
 Integral Job Info:
 Integral job number is                      11
 Integral operator is                         1
 short-range coefficients                     0
 long-range coefficients              100000000
 Omega coefficients                           0
 if combine SR and LR in K                    0
 Integral screening is                        0
 Integral computing path is                   2
 max size of driver memory is            800000
 size of driver memory is                593474
 size of scratch memory is              2260544
 max col of scratch BK array               1296
 max len of scratch array in speh3          155
 max len of scratch index in speh4           18
 max int batch size is                      520
 min int batch size is                       52
 fixed nKL is                                52
 max L of basis functions is                  2
 order of int derivative is                   0
 number of shells is                         20
 number of basis is                          75
 number of cartesian basis is                75
 number of contracted shell pairs           190
 number of primitive shell pairs            959
 maxK2 (contraction) of shell pair           36
 max number of K2 of shell pair               1
 max number of CS2 of shell pair             32
 max number of PS2 of shell pair            192
 mem total for path MDJ                   18100
 -------------------------------------------------------
 Smallest overlap matrix eigenvalue = 3.47E-03

 Scale SEOQF with 1.000000e+00/1.000000e-01/1.000000e+00

 Standard Electronic Orientation quadrupole field applied
 Nucleus-field energy     =     0.0000000095 hartrees
 Guess from superposition of atomic densities
 Warning:  Energy on first SCF cycle will be non-variational
 An unrestricted Hartree-Fock SCF calculation will be
 performed using Pulay DIIS + Geometric Direct Minimization
 SCF converges when RMS gradient is below 1.0E-07
 ---------------------------------------
  Cycle       Energy         DIIS Error
 ---------------------------------------
    1    -436.4321724793      9.28E-02
    2    -434.9776378501      1.78E-02
    3    -435.1311250408      8.31E-03 Done DIIS. Switching to GDM
    4    -435.1626887777      9.17E-03 Normal BFGS step
    5    -435.1637124777      8.72E-03 Normal BFGS step
    6    -435.1640634871      2.92E-03 Normal BFGS step
    7    -435.1640972244      2.91E-03 Normal BFGS step
    8    -435.1641156075      2.87E-03 Normal BFGS step
    9    -435.1641456475      2.74E-03 Normal BFGS step
   10    -435.1642009895      2.34E-03 Normal BFGS step
   11    -435.1642896962      2.41E-03 Normal BFGS step
   12    -435.1643796720      2.05E-03 Normal BFGS step
   13    -435.1644238208      9.60E-04 Normal BFGS step
   14    -435.1644316006      1.93E-04 Normal BFGS step
   15    -435.1644321104      7.91E-05 Normal BFGS step
   16    -435.1644321539      3.56E-05 Normal BFGS step
   17    -435.1644321592      1.73E-05 Normal BFGS step
   18    -435.1644321612      1.72E-05 Normal BFGS step
   19    -435.1644321622      1.72E-05 Normal BFGS step
   20    -435.1644321630      1.72E-05 Normal BFGS step
   21    -435.1644321645      1.72E-05 Normal BFGS step
   22    -435.1644321676      2.54E-05 Normal BFGS step
   23    -435.1644321756      4.59E-05 Normal BFGS step
   24    -435.1644321957      7.87E-05 Normal BFGS step
   25    -435.1644322485      1.32E-04 Normal BFGS step
   26    -435.1644323873      2.20E-04 Normal BFGS step
   27    -435.1644327324      3.66E-04 Normal BFGS step
   28    -435.1644331493      6.28E-04 Normal BFGS step
   29    -435.1644340584      4.68E-04 Normal BFGS step
   30    -435.1644297232      8.07E-03 Line search: overstep
   31    -435.1644354919      6.78E-04 Normal BFGS step
   32    -435.1644377444      5.02E-04 Normal BFGS step
   33    -435.1644383464      3.30E-04 Dog-leg BFGS step
   34    -435.1643871681      2.03E-02 Line search: overstep
   35    -435.1644390807      4.80E-04 Dog-leg BFGS step
   36    -435.1644413113      8.09E-04 Normal BFGS step
   37    -435.1644429825      2.96E-04 Normal BFGS step
   38    -435.1644385340      7.40E-03 Line search: overstep
   39    -435.1644435229      4.87E-04 Dog-leg BFGS step
   40    -435.1644445801      1.24E-03 Normal BFGS step
   41    -435.1644460259      2.26E-04 Normal BFGS step
   42    -435.1644471208      2.44E-04 Normal BFGS step
   43    -435.1644396982      8.74E-03 Line search: overstep
   44    -435.1644477717      4.02E-04 Dog-leg BFGS step
   45    -435.1644489456      9.76E-04 Normal BFGS step
   46    -435.1644501930      1.70E-04 Normal BFGS step
   47    -435.1644515177      4.37E-04 Normal BFGS step
   48    -435.1644515757      1.31E-03 Normal BFGS step
   49    -435.1644529775      2.21E-04 Normal BFGS step
   50    -435.1644537006      1.02E-04 Normal BFGS step
   51    -435.1644526341      4.38E-03 Line search: overstep
   52    -435.1644542726      3.56E-04 Normal BFGS step
   53    -435.1644547127      7.33E-04 Normal BFGS step
   54    -435.1644553871      2.27E-04 Normal BFGS step
   55    -435.1644560648      1.55E-04 Normal BFGS step
   56    -435.1644563284      5.48E-04 Normal BFGS step
   57    -435.1644566123      7.67E-05 Normal BFGS step
   58    -435.1644567376      6.53E-05 Normal BFGS step
   59    -435.1644567982      1.96E-04 Normal BFGS step
   60    -435.1644568307      6.08E-05 Normal BFGS step
   61    -435.1644568457      6.38E-05 Normal BFGS step
   62    -435.1644568722      7.01E-05 Normal BFGS step
   63    -435.1644569035      7.37E-05 Normal BFGS step
   64    -435.1644569722      7.35E-05 Normal BFGS step
   65    -435.1644570811      5.90E-05 Normal BFGS step
   66    -435.1644571756      7.94E-05 Normal BFGS step
   67    -435.1644569887      1.06E-03 Line search: overstep
   68    -435.1644571933      2.71E-05 Normal BFGS step
   69    -435.1644572182      2.85E-05 Normal BFGS step
   70    -435.1644572248      4.07E-05 Normal BFGS step
   71    -435.1644572314      3.59E-05 Normal BFGS step
   72    -435.1644572366      1.43E-05 Normal BFGS step
   73    -435.1644572397      1.14E-05 Normal BFGS step
   74    -435.1644572417      5.59E-06 Normal BFGS step
   75    -435.1644572420      1.49E-06 Normal BFGS step
   76    -435.1644572420      8.29E-07 Normal BFGS step
   77    -435.1644572420      3.90E-07 Normal BFGS step
   78    -435.1644572420      1.58E-07 Normal BFGS step
   GDM::WARNING energy changes are now smaller than effective accuracy.
   GDM::        calculation will continue, but THRESH should be increased
   GDM::        or SCF_CONVERGENCE decreased.
   GDM::        effective_thresh =   1.565326868124828E-009
   79    -435.1644572420      7.47E-08 Convergence criterion met
 ---------------------------------------
 <S^2> = 0.7532
 SCF time:  CPU 10.66 s  wall 37.44 s
 SCF   energy in the final basis set = -435.1644572420
 Total energy in the final basis set = -435.1644572420
================================================================================
|                                                                              |
|                                 A D C  M A N                                 |
|                                                                              |
 ------------------------------------------------------------------------------ 
|                                                                              |
| Components:                                                                  |
|                                                                              |
| - libvmm - 1.2-release                                                       |
|   Authors:                                                                   |
|   Evgeny Epifanovsky, Ilya Kaliman                                           |
|                                                                              |
| - libtensor - 2.4-trunk                                                      |
|   Authors:                                                                   |
|   Evgeny Epifanovsky, Michael Wormit, Dmitry Zuev, Sam Manzer                |
|                                                                              |
| - libwfa - 1.1-beta                                                          |
|   Authors:                                                                   |
|   Felix Plasser, Stefanie Baeppler, Benjamin Thomitzni, Michael Wormit       |
|                                                                              |
| - libadc - 1.0-beta                                                          |
|   Authors:                                                                   |
|   Michael Wormit, Philipp H. P. Harbach, Caroline Krauter, Dirk Rehn,        |
|   Matthias Schneider, Jan Wenzel                                             |
|                                                                              |
| - adcman - 2.4-beta                                                          |
|   Authors:                                                                   |
|   Michael Wormit, Philipp H. P. Harbach, Caroline Krauter, Dirk Rehn,        |
|   Jan Wenzel, Andreas Dreuw                                                  |
|                                                                              |
| Authors of earlier versions of ADCMAN:                                       |
| Andreas Dreuw, Jan Hendrik Starcke, Dirk Rehn, Michael Wormit                |
|                                                                              |
================================================================================

 
 Alpha MOs, Unrestricted
 -- Occupied --                  
-26.742 -26.742 -26.740 -26.629 -11.950  -2.172  -2.061  -2.058
  1 A     2 A     3 A     4 A     5 A     6 A     7 A     8 A                  
 -1.878  -1.322  -1.239  -1.238  -1.187  -1.070  -1.069  -1.046
  9 A    10 A    11 A    12 A    13 A    14 A    15 A    16 A                  
 -1.038  -1.038  -1.016  -0.938  -0.936
 17 A    18 A    19 A    20 A    21 A                                          
 -- Virtual --                   
 -0.223   0.063   0.189   0.189   0.362   0.410   0.413   0.430
 22 A    23 A    24 A    25 A    26 A    27 A    28 A    29 A                  
  0.941   1.013   1.014   1.020   1.083   1.095   1.179   1.223
 30 A    31 A    32 A    33 A    34 A    35 A    36 A    37 A                  
  1.235   1.285   1.287   1.292   1.293   1.313   1.413   1.534
 38 A    39 A    40 A    41 A    42 A    43 A    44 A    45 A                  
  1.651   1.652   1.737   1.746   1.785   1.789   1.809   1.821
 46 A    47 A    48 A    49 A    50 A    51 A    52 A    53 A                  
  1.845   1.870   1.964   1.978   1.991   1.991   2.008   2.088
 54 A    55 A    56 A    57 A    58 A    59 A    60 A    61 A                  
  2.132   2.504   2.642   2.647   2.980   2.983   3.202   3.204
 62 A    63 A    64 A    65 A    66 A    67 A    68 A    69 A                  
  3.243   3.627   4.277   4.720   4.725   4.836
 70 A    71 A    72 A    73 A    74 A    75 A                                  
 
 Beta MOs, Unrestricted
 -- Occupied --                  
-26.742 -26.742 -26.740 -26.580 -11.950  -2.172  -2.062  -2.058
  1 A     2 A     3 A     4 A     5 A     6 A     7 A     8 A                  
 -1.684  -1.322  -1.239  -1.238  -1.187  -1.070  -1.069  -1.040
  9 A    10 A    11 A    12 A    13 A    14 A    15 A    16 A                  
 -1.038  -1.016  -0.884  -0.883
 17 A    18 A    19 A    20 A                                                  
 -- Virtual --                   
 -0.222  -0.125   0.064   0.189   0.193   0.366   0.410   0.415
 21 A    22 A    23 A    24 A    25 A    26 A    27 A    28 A                  
  0.431   0.964   1.013   1.014   1.026   1.097   1.101   1.239
 29 A    30 A    31 A    32 A    33 A    34 A    35 A    36 A                  
  1.253   1.284   1.287   1.289   1.295   1.313   1.378   1.414
 37 A    38 A    39 A    40 A    41 A    42 A    43 A    44 A                  
  1.546   1.652   1.652   1.747   1.749   1.785   1.813   1.827
 45 A    46 A    47 A    48 A    49 A    50 A    51 A    52 A                  
  1.863   1.934   1.937   1.964   1.989   1.991   2.012   2.023
 53 A    54 A    55 A    56 A    57 A    58 A    59 A    60 A                  
  2.088   2.144   2.507   2.642   2.647   2.980   2.983   3.202
 61 A    62 A    63 A    64 A    65 A    66 A    67 A    68 A                  
  3.204   3.245   3.665   4.278   4.720   4.725   4.837
 69 A    70 A    71 A    72 A    73 A    74 A    75 A                          
 

--------------------------------------------------------------------------------
                                   HF Summary                                   
--------------------------------------------------------------------------------
  Energy:                                                 -435.1644572420 a.u.
  Dip. moment [a.u.]:                  [ -54.278586,  181.785562,    0.104926]
  Total dipole [Debye]:                                             482.210104
  <r^2> [a.u.]:                        [ 169.249297,  990.775716,  102.154152]
  Total <r^2> [a.u.]:                                              1262.179165
--------------------------------------------------------------------------------

--------------------------------------------------------------------------------
                                 MP(2) Summary                                  
--------------------------------------------------------------------------------
  Energy contribution:                                      -0.7422519955 a.u.
  Total energy:                                           -435.9067092376 a.u.
  Dip. moment [a.u.]:                  [ -54.309813,  181.705470,    0.132461]
  Total dipole [Debye]:                                             482.037811
  <r^2> [a.u.]:                        [ 169.079781,  989.958162,  101.885439]
  Total <r^2> [a.u.]:                                              1260.923382
--------------------------------------------------------------------------------
  Starting Davidson ... 
--------------------------------------------------------------------------------
   It NVec Conv  Avg. Norm  Max. Norm  Conv. states           Remark
--------------------------------------------------------------------------------
        20    0  2.091e-01  1.134e+00 10.9634 n n n n n n n n Guess.
    1   40    0  4.681e-02  6.069e-01 10.7990 n n n n n n n n 
    2   60    0  8.953e-03  9.865e-02 10.7975 n n n n n n n n 
    3   80    0  2.724e-03  2.915e-02 10.7974 n n n n n n n n 
    4  100    0  1.272e-03  1.700e-02 10.7974 n n n n n n n n 
    5   40    0  9.318e-04  1.180e-02 10.7974 n n n n n n n n Subspace collapsed.
    6   60    0  1.089e-03  1.483e-02 10.7974 n n n n n n n n 
    7   80    0  1.300e-03  2.057e-02 10.7974 n n n n n n n n 
    8  100    2  1.440e-03  2.610e-02 10.7974 y y n n n n n n 
    9   40    9  7.673e-04  1.420e-02 10.7974 y y y y y y y y Subspace collapsed.
   10   60    9  6.748e-04  1.303e-02 10.7974 y y y y y y y y 
   11   80   10  7.765e-04  1.542e-02 10.7974 y y y y y y y y 
   12  100   13  7.878e-04  1.565e-02 10.7974 y y y y y y y y 
   13   40   15  5.119e-04  1.015e-02 10.7974 y y y y y y y y Subspace collapsed.
   14   60   15  5.061e-04  9.966e-03 10.7974 y y y y y y y y 
   15   80   17  7.059e-04  1.402e-02 10.7974 y y y y y y y y 
   16  100   17  1.067e-03  2.130e-02 10.7974 y y y y y y y y 
   17   39   17  5.932e-04  1.184e-02 10.7974 y y y y y y y y Subspace collapsed.
   18   57   17  4.969e-04  9.926e-03 10.7974 y y y y y y y y 
   19   59   17  4.936e-04  9.860e-03 10.7974 y y y y y y y y 
   20   60   17  4.916e-04  9.820e-03 10.7974 y y y y y y y y 
   21   60   17  4.916e-04  9.820e-03 10.7974 y y y y y y y y 
   22   80   17  4.519e-04  9.036e-03 10.7974 y y y y y y y y 
   23   80   17  4.519e-04  9.036e-03 10.7974 y y y y y y y y 
   24   80   17  4.519e-04  9.036e-03 10.7974 y y y y y y y y 
   25  100   17  4.808e-04  9.613e-03 10.7974 y y y y y y y y 
   26   31   17  3.549e-04  7.095e-03 10.7974 y y y y y y y y Subspace collapsed.
   27   42   17  3.864e-04  7.725e-03 10.7974 y y y y y y y y 
   28   53   17  4.901e-04  9.800e-03 10.7974 y y y y y y y y 
   29   64   17  7.026e-04  1.405e-02 10.7974 y y y y y y y y 
   30   75   17  1.021e-03  2.041e-02 10.7974 y y y y y y y y 
   31   77   17  1.016e-03  2.033e-02 10.7974 y y y y y y y y 
   32   78   17  1.016e-03  2.033e-02 10.7974 y y y y y y y y 
   33   79   17  1.019e-03  2.038e-02 10.7974 y y y y y y y y 
   34   80   17  1.009e-03  2.018e-02 10.7974 y y y y y y y y 
   35   80   17  1.009e-03  2.018e-02 10.7974 y y y y y y y y 
   36   82   17  1.010e-03  2.019e-02 10.7974 y y y y y y y y 
   37   82   17  1.010e-03  2.019e-02 10.7974 y y y y y y y y 
   38   82   17  1.010e-03  2.019e-02 10.7974 y y y y y y y y 
   39  100   17  9.037e-04  1.807e-02 10.7974 y y y y y y y y 
   40   21   17  9.024e-04  1.805e-02 10.7974 y y y y y y y y Subspace collapsed.
   41   22   17  9.016e-04  1.803e-02 10.7974 y y y y y y y y 
   42   22   17  9.016e-04  1.803e-02 10.7974 y y y y y y y y 
   43   22   17  9.016e-04  1.803e-02 10.7974 y y y y y y y y 
   44   42   17  3.737e-04  7.474e-03 10.7974 y y y y y y y y 
   45   46   17  2.620e-04  5.239e-03 10.7974 y y y y y y y y 
   46   50   17  1.620e-04  3.240e-03 10.7974 y y y y y y y y 
   47   54   17  1.314e-04  2.627e-03 10.7974 y y y y y y y y 
   48   58   17  1.511e-04  3.020e-03 10.7974 y y y y y y y y 
   49   62   17  1.852e-04  3.702e-03 10.7974 y y y y y y y y 
   50   62   17  1.852e-04  3.702e-03 10.7974 y y y y y y y y 
   51   63   17  1.864e-04  3.728e-03 10.7974 y y y y y y y y 
   52   63   17  1.864e-04  3.728e-03 10.7974 y y y y y y y y 
   53   64   17  1.883e-04  3.765e-03 10.7974 y y y y y y y y 
   54   64   17  1.883e-04  3.765e-03 10.7974 y y y y y y y y 
   55   64   17  1.883e-04  3.765e-03 10.7974 y y y y y y y y 
   56   64   17  1.883e-04  3.765e-03 10.7974 y y y y y y y y 
   57   84   17  1.660e-04  3.319e-03 10.7974 y y y y y y y y 
   58   87   17  1.128e-04  2.255e-03 10.7974 y y y y y y y y 
   59   90   17  9.208e-05  1.841e-03 10.7974 y y y y y y y y 
--------------------------------------------------------------------------------
  Davidson Summary: 
 ------------------------------------------------------------
  State  0: excitation energy =  10.7974 a.u.   (converged)
  State  1: excitation energy =  10.8689 a.u.   (converged)
  State  2: excitation energy =  11.1782 a.u.   (converged)
  State  3: excitation energy =  11.1973 a.u.   (converged)
  State  4: excitation energy =  11.2239 a.u.   (converged)
  State  5: excitation energy =  11.2286 a.u.   (converged)
  State  6: excitation energy =  11.2390 a.u.   (converged)
  State  7: excitation energy =  11.3021 a.u.   (converged)
  State  8: excitation energy =  11.3066 a.u.   (converged)
  State  9: excitation energy =  11.5393 a.u.   (converged)
  State 10: excitation energy =  11.5622 a.u.   (converged)
  State 11: excitation energy =  11.5704 a.u.   (converged)
  State 12: excitation energy =  11.5717 a.u.   (converged)
  State 13: excitation energy =  11.5791 a.u.   (converged)
  State 14: excitation energy =  11.5867 a.u.   (converged)
  State 15: excitation energy =  11.5867 a.u.   (converged)
  State 16: excitation energy =  11.6089 a.u.   (converged)
  State 17: excitation energy =  12.2237 a.u.   (not converged)
  State 18: excitation energy =  12.2257 a.u.   (not converged)
  State 19: excitation energy =  12.2299 a.u.   (not converged)
 ------------------------------------------------------------


--------------------------------------------------------------------------------
                             Excited State Summary
--------------------------------------------------------------------------------

  Excited state  1 (A)                                             [converged]
  ----------------------------------------------------------------------------
  Term symbol:  2 (-) A                                     R^2 =  1.72984e-14

  Total energy:                                           -425.1092711187 a.u.
  Excitation energy:                                             293.813234 eV

  Osc. strength:                                                      0.000001
  Trans. dip. moment [a.u.]:           [   0.000100,    0.000255,   -0.000086]
  <i|r^2|0> [a.u.]:                    [  -0.000221,    0.002612,    0.000041]

  V1^2 = 0.9579, V2^2 = 0.0421

  Important amplitudes:
     core i     occ j      vir a      vir b          v   
    ------------------------------------------------------
     5 (A) A              22 (A) A                 0.6572
     5 (A) B              21 (A) B                -0.6538
    ------------------------------------------------------
  ----------------------------------------------------------------------------


  Excited state  2 (A)                                             [converged]
  ----------------------------------------------------------------------------
  Term symbol:  3 (-) A                                     R^2 =  8.82683e-14

  Total energy:                                           -425.0378388503 a.u.
  Excitation energy:                                             295.757005 eV

  Osc. strength:                                                      0.101145
  Trans. dip. moment [a.u.]:           [  -0.041006,   -0.104902,    0.035678]
  <i|r^2|0> [a.u.]:                    [   0.092661,   -1.079406,   -0.014959]

  V1^2 = 0.9531, V2^2 = 0.0469

  Important amplitudes:
     core i     occ j      vir a      vir b          v   
    ------------------------------------------------------
     5 (A) B              21 (A) B                -0.6680
     5 (A) A              22 (A) A                -0.6642
    ------------------------------------------------------
  ----------------------------------------------------------------------------


  Excited state  3 (A)                                             [converged]
  ----------------------------------------------------------------------------
  Term symbol:  4 (-) A                                     R^2 =  3.72529e-14

  Total energy:                                           -424.7285356362 a.u.
  Excitation energy:                                             304.173573 eV

  Osc. strength:                                                      0.000000
  Trans. dip. moment [a.u.]:           [   0.000088,    0.000224,   -0.000075]
  <i|r^2|0> [a.u.]:                    [  -0.000167,    0.002370,    0.000062]

  V1^2 = 0.9293, V2^2 = 0.0707

  Important amplitudes:
     core i     occ j      vir a      vir b          v   
    ------------------------------------------------------
     5 (A) A              23 (A) A                 0.5980
     5 (A) B              23 (A) B                -0.5946
    ------------------------------------------------------
  ----------------------------------------------------------------------------


  Excited state  4 (A)                                             [converged]
  ----------------------------------------------------------------------------
  Term symbol:  5 (-) A                                     R^2 =  4.79131e-14

  Total energy:                                           -424.7093853855 a.u.
  Excitation energy:                                             304.694678 eV

  Osc. strength:                                                      0.000078
  Trans. dip. moment [a.u.]:           [   0.002671,   -0.001431,   -0.001110]
  <i|r^2|0> [a.u.]:                    [  -0.005902,   -0.014675,    0.000779]

  V1^2 = 0.8557, V2^2 = 0.1443

  Important amplitudes:
     core i     occ j      vir a      vir b          v   
    ------------------------------------------------------
     5 (A) B              22 (A) B                 0.9195
     5 (A) B   13 (A) A   22 (A) A   22 (A) B     -0.0651
    ------------------------------------------------------
  ----------------------------------------------------------------------------


  Excited state  5 (A)                                             [converged]
  ----------------------------------------------------------------------------
  Term symbol:  6 (-) A                                     R^2 =  2.01306e-14

  Total energy:                                           -424.6827717882 a.u.
  Excitation energy:                                             305.418871 eV

  Osc. strength:                                                      0.000000
  Trans. dip. moment [a.u.]:           [  -0.000009,   -0.000027,    0.000065]
  <i|r^2|0> [a.u.]:                    [   0.000007,   -0.000307,   -0.000048]

  V1^2 = 0.9528, V2^2 = 0.0472

  Important amplitudes:
     core i     occ j      vir a      vir b          v   
    ------------------------------------------------------
     5 (A) B              27 (A) B                 0.4856
     5 (A) A              27 (A) A                -0.4855
    ------------------------------------------------------
  ----------------------------------------------------------------------------


  Excited state  6 (A)                                             [converged]
  ----------------------------------------------------------------------------
  Term symbol:  7 (-) A                                     R^2 =  4.39477e-14

  Total energy:                                           -424.6780831471 a.u.
  Excitation energy:                                             305.546455 eV

  Osc. strength:                                                      0.000002
  Trans. dip. moment [a.u.]:           [   0.000472,   -0.000251,   -0.000194]
  <i|r^2|0> [a.u.]:                    [  -0.001037,   -0.002577,    0.000138]

  V1^2 = 0.9518, V2^2 = 0.0482

  Important amplitudes:
     core i     occ j      vir a      vir b          v   
    ------------------------------------------------------
     5 (A) A              28 (A) A                 0.4953
     5 (A) B              28 (A) B                -0.4857
    ------------------------------------------------------
  ----------------------------------------------------------------------------


  Excited state  7 (A)                                             [converged]
  ----------------------------------------------------------------------------
  Term symbol:  8 (-) A                                     R^2 =  5.18535e-14

  Total energy:                                           -424.6677390598 a.u.
  Excitation energy:                                             305.827932 eV

  Osc. strength:                                                      0.013559
  Trans. dip. moment [a.u.]:           [  -0.013485,   -0.037300,    0.015379]
  <i|r^2|0> [a.u.]:                    [   0.013211,   -0.412428,   -0.023753]

  V1^2 = 0.9176, V2^2 = 0.0824

  Important amplitudes:
     core i     occ j      vir a      vir b          v   
    ------------------------------------------------------
     5 (A) B              23 (A) B                -0.6369
     5 (A) A              23 (A) A                -0.6337
    ------------------------------------------------------
  ----------------------------------------------------------------------------


  Excited state  8 (A)                                             [converged]
  ----------------------------------------------------------------------------
  Term symbol:  9 (-) A                                     R^2 =  2.63033e-14

  Total energy:                                           -424.6045594650 a.u.
  Excitation energy:                                             307.547136 eV

  Osc. strength:                                                      0.116592
  Trans. dip. moment [a.u.]:           [   0.058051,    0.015136,    0.108972]
  <i|r^2|0> [a.u.]:                    [  -0.126088,    0.155669,   -0.058583]

  V1^2 = 0.9436, V2^2 = 0.0564

  Important amplitudes:
     core i     occ j      vir a      vir b          v   
    ------------------------------------------------------
     5 (A) B              24 (A) B                 0.5289
     5 (A) A              24 (A) A                 0.5254
    ------------------------------------------------------
  ----------------------------------------------------------------------------


  Excited state  9 (A)                                             [converged]
  ----------------------------------------------------------------------------
  Term symbol:  10 (-) A                                    R^2 =  5.42759e-14

  Total energy:                                           -424.6000693478 a.u.
  Excitation energy:                                             307.669319 eV

  Osc. strength:                                                      0.116149
  Trans. dip. moment [a.u.]:           [   0.101105,   -0.055271,   -0.046171]
  <i|r^2|0> [a.u.]:                    [  -0.219779,   -0.570765,    0.031864]

  V1^2 = 0.9432, V2^2 = 0.0568

  Important amplitudes:
     core i     occ j      vir a      vir b          v   
    ------------------------------------------------------
     5 (A) B              25 (A) B                 0.5297
     5 (A) A              25 (A) A                 0.5198
    ------------------------------------------------------
  ----------------------------------------------------------------------------


  Excited state 10 (A)                                             [converged]
  ----------------------------------------------------------------------------
  Term symbol:  11 (-) A                                    R^2 =  4.53374e-14

  Total energy:                                           -424.3674065006 a.u.
  Excitation energy:                                             314.000397 eV

  Osc. strength:                                                      0.000006
  Trans. dip. moment [a.u.]:           [   0.000302,    0.000774,   -0.000270]
  <i|r^2|0> [a.u.]:                    [  -0.000773,    0.007901,    0.000022]

  V1^2 = 0.9108, V2^2 = 0.0892

  Important amplitudes:
     core i     occ j      vir a      vir b          v   
    ------------------------------------------------------
     5 (A) A              29 (A) A                -0.5903
     5 (A) B              29 (A) B                 0.5817
    ------------------------------------------------------
  ----------------------------------------------------------------------------


  Excited state 11 (A)                                             [converged]
  ----------------------------------------------------------------------------
  Term symbol:  12 (-) A                                    R^2 =  8.07096e-14

  Total energy:                                           -424.3444744703 a.u.
  Excitation energy:                                             314.624409 eV

  Osc. strength:                                                      0.000190
  Trans. dip. moment [a.u.]:           [  -0.001923,   -0.004381,    0.001341]
  <i|r^2|0> [a.u.]:                    [   0.004446,   -0.045120,   -0.000412]

  V1^2 = 0.9073, V2^2 = 0.0927

  Important amplitudes:
     core i     occ j      vir a      vir b          v   
    ------------------------------------------------------
     5 (A) A              26 (A) A                 0.6490
     5 (A) B              26 (A) B                -0.5533
    ------------------------------------------------------
  ----------------------------------------------------------------------------


  Excited state 12 (A)                                             [converged]
  ----------------------------------------------------------------------------
  Term symbol:  13 (-) A                                    R^2 =  4.73015e-14

  Total energy:                                           -424.3362654879 a.u.
  Excitation energy:                                             314.847787 eV

  Osc. strength:                                                      0.000356
  Trans. dip. moment [a.u.]:           [  -0.005630,    0.002976,    0.002359]
  <i|r^2|0> [a.u.]:                    [   0.012001,    0.030886,   -0.001579]

  V1^2 = 0.8967, V2^2 = 0.1033

  Important amplitudes:
     core i     occ j      vir a      vir b          v   
    ------------------------------------------------------
     5 (A) A              28 (A) A                -0.5172
     5 (A) A              25 (A) A                 0.5131
    ------------------------------------------------------
  ----------------------------------------------------------------------------


  Excited state 13 (A)                                             [converged]
  ----------------------------------------------------------------------------
  Term symbol:  14 (-) A                                    R^2 =  1.88245e-13

  Total energy:                                           -424.3350154352 a.u.
  Excitation energy:                                             314.881802 eV

  Osc. strength:                                                      0.000108
  Trans. dip. moment [a.u.]:           [  -0.001106,   -0.003458,    0.000898]
  <i|r^2|0> [a.u.]:                    [   0.002303,   -0.035965,   -0.000548]

  V1^2 = 0.8979, V2^2 = 0.1021

  Important amplitudes:
     core i     occ j      vir a      vir b          v   
    ------------------------------------------------------
     5 (A) A              27 (A) A                 0.4495
     5 (A) B              27 (A) B                -0.4489
    ------------------------------------------------------
  ----------------------------------------------------------------------------


  Excited state 14 (A)                                             [converged]
  ----------------------------------------------------------------------------
  Term symbol:  15 (-) A                                    R^2 =  9.42795e-14

  Total energy:                                           -424.3276078510 a.u.
  Excitation energy:                                             315.083373 eV

  Osc. strength:                                                      0.033096
  Trans. dip. moment [a.u.]:           [  -0.028683,   -0.058268,    0.008343]
  <i|r^2|0> [a.u.]:                    [   0.051634,   -0.614885,   -0.014113]

  V1^2 = 0.9047, V2^2 = 0.0953

  Important amplitudes:
     core i     occ j      vir a      vir b          v   
    ------------------------------------------------------
     5 (A) B              26 (A) B                 0.5967
     5 (A) A              26 (A) A                 0.5015
    ------------------------------------------------------
  ----------------------------------------------------------------------------


  Excited state 15 (A)                                             [converged]
  ----------------------------------------------------------------------------
  Term symbol:  16 (-) A                                    R^2 =  2.46157e-13

  Total energy:                                           -424.3200196797 a.u.
  Excitation energy:                                             315.289858 eV

  Osc. strength:                                                      0.030715
  Trans. dip. moment [a.u.]:           [   0.033999,   -0.005720,    0.052799]
  <i|r^2|0> [a.u.]:                    [  -0.076721,   -0.064189,   -0.034294]

  V1^2 = 0.9008, V2^2 = 0.0992

  Important amplitudes:
     core i     occ j      vir a      vir b          v   
    ------------------------------------------------------
     5 (A) B              27 (A) B                 0.5184
     5 (A) A              27 (A) A                 0.5149
    ------------------------------------------------------
  ----------------------------------------------------------------------------


  Excited state 16 (A)                                             [converged]
  ----------------------------------------------------------------------------
  Term symbol:  17 (-) A                                    R^2 =  1.20793e-13

  Total energy:                                           -424.3199845412 a.u.
  Excitation energy:                                             315.290814 eV

  Osc. strength:                                                      0.031738
  Trans. dip. moment [a.u.]:           [  -0.047027,    0.028359,    0.033061]
  <i|r^2|0> [a.u.]:                    [   0.099644,    0.293720,   -0.021505]

  V1^2 = 0.9002, V2^2 = 0.0998

  Important amplitudes:
     core i     occ j      vir a      vir b          v   
    ------------------------------------------------------
     5 (A) B              28 (A) B                -0.5626
     5 (A) A              28 (A) A                -0.4666
    ------------------------------------------------------
  ----------------------------------------------------------------------------


  Excited state 17 (A)                                             [converged]
  ----------------------------------------------------------------------------
  Term symbol:  18 (-) A                                    R^2 =  5.54095e-13

  Total energy:                                           -424.2978242218 a.u.
  Excitation energy:                                             315.893827 eV

  Osc. strength:                                                      0.008055
  Trans. dip. moment [a.u.]:           [   0.007653,    0.027342,   -0.015319]
  <i|r^2|0> [a.u.]:                    [  -0.039400,    0.260014,   -0.014404]

  V1^2 = 0.9166, V2^2 = 0.0834

  Important amplitudes:
     core i     occ j      vir a      vir b          v   
    ------------------------------------------------------
     5 (A) B              29 (A) B                -0.5810
     5 (A) A              29 (A) A                -0.5450
    ------------------------------------------------------
  ----------------------------------------------------------------------------


  Excited state 18 (A)                                         [not converged]
  ----------------------------------------------------------------------------
  Term symbol:  19 (-) A                                    R^2 =  6.11573e-06

  Total energy:                                           -423.6830224037 a.u.
  Excitation energy:                                             332.623435 eV


  V1^2 = 0.8710, V2^2 = 0.1290

  Important amplitudes:
     core i     occ j      vir a      vir b          v   
    ------------------------------------------------------
     5 (A) A              31 (A) A                -0.6404
     5 (A) B              31 (A) B                 0.6207
    ------------------------------------------------------
  ----------------------------------------------------------------------------


  Excited state 19 (A)                                         [not converged]
  ----------------------------------------------------------------------------
  Term symbol:  20 (-) A                                    R^2 =  1.84105e-03

  Total energy:                                           -423.6810018121 a.u.
  Excitation energy:                                             332.678418 eV


  V1^2 = 0.8707, V2^2 = 0.1293

  Important amplitudes:
     core i     occ j      vir a      vir b          v   
    ------------------------------------------------------
     5 (A) B              32 (A) B                -0.6636
     5 (A) A              32 (A) A                 0.5789
    ------------------------------------------------------
  ----------------------------------------------------------------------------


  Excited state 20 (A)                                         [not converged]
  ----------------------------------------------------------------------------
  Term symbol:  21 (-) A                                    R^2 =  4.42605e-05

  Total energy:                                           -423.6768566808 a.u.
  Excitation energy:                                             332.791213 eV


  V1^2 = 0.8701, V2^2 = 0.1299

  Important amplitudes:
     core i     occ j      vir a      vir b          v   
    ------------------------------------------------------
     5 (A) B              31 (A) B                -0.6374
     5 (A) A              31 (A) A                -0.6116
    ------------------------------------------------------
  ----------------------------------------------------------------------------


--------------------------------------------------------------------------------
  Time of ADC calculation:  CPU 1420.71 s  wall 1459.85 s
================================================================================
 
 --------------------------------------------------------------
 
                    Orbital Energies (a.u.)
 --------------------------------------------------------------
 
 Alpha MOs
 -- Occupied --
-26.742 -26.742 -26.740 -26.629 -11.950  -2.172  -2.061  -2.058
 -1.878  -1.322  -1.239  -1.238  -1.187  -1.070  -1.069  -1.046
 -1.038  -1.038  -1.016  -0.938  -0.936
 -- Virtual --
 -0.223   0.063   0.189   0.189   0.362   0.410   0.413   0.430
  0.941   1.013   1.014   1.020   1.083   1.095   1.179   1.223
  1.235   1.285   1.287   1.292   1.293   1.313   1.413   1.534
  1.651   1.652   1.737   1.746   1.785   1.789   1.809   1.821
  1.845   1.870   1.964   1.978   1.991   1.991   2.008   2.088
  2.132   2.504   2.642   2.647   2.980   2.983   3.202   3.204
  3.243   3.627   4.277   4.720   4.725   4.836
 
 Beta MOs
 -- Occupied --
-26.742 -26.742 -26.740 -26.580 -11.950  -2.172  -2.062  -2.058
 -1.684  -1.322  -1.239  -1.238  -1.187  -1.070  -1.069  -1.040
 -1.038  -1.016  -0.884  -0.883
 -- Virtual --
 -0.222  -0.125   0.064   0.189   0.193   0.366   0.410   0.415
  0.431   0.964   1.013   1.014   1.026   1.097   1.101   1.239
  1.253   1.284   1.287   1.289   1.295   1.313   1.378   1.414
  1.546   1.652   1.652   1.747   1.749   1.785   1.813   1.827
  1.863   1.934   1.937   1.964   1.989   1.991   2.012   2.023
  2.088   2.144   2.507   2.642   2.647   2.980   2.983   3.202
  3.204   3.245   3.665   4.278   4.720   4.725   4.837
 --------------------------------------------------------------
 
          Ground-State Mulliken Net Atomic Charges

     Atom                 Charge (a.u.)    Spin (a.u.)
  --------------------------------------------------------
      1 C                     1.212802      -0.005147
      2 F                    -0.081448      -0.000194
      3 F                    -0.081206      -0.000194
      4 F                     0.035023       1.005733
      5 F                    -0.085171      -0.000198
  --------------------------------------------------------
  Sum of atomic charges =     1.000000
  Sum of spin   charges =     1.000000

 -----------------------------------------------------------------
                    Cartesian Multipole Moments
 -----------------------------------------------------------------
    Charge (ESU x 10^10)
                 4.8032
    Dipole Moment (Debye)
         X      -2.9010      Y      12.5592      Z      -0.5063
       Tot      12.8998
    Quadrupole Moments (Debye-Ang)
        XX     -18.5962     XY      -7.2310     YY      13.6097
        XZ      -0.1927     YZ      -1.8688     ZZ     -20.7722
    Octopole Moments (Debye-Ang^2)
       XXX      41.6235    XXY     -44.4223    XYY      -4.5182
       YYY     -51.6928    XXZ       1.3270    XYZ       0.3241
       YYZ      -5.3085    XZZ      13.5208    YZZ     -48.4410
       ZZZ      -0.5162
    Hexadecapole Moments (Debye-Ang^3)
      XXXX    -133.0867   XXXY      85.9335   XXYY    -153.3626
      XYYY      35.2710   YYYY    -576.6389   XXXZ       2.6236
      XXYZ       7.0424   XYYZ       3.0958   YYYZ       3.9435
      XXZZ     -34.4914   XYZZ      26.6773   YYZZ    -151.5043
      XZZZ       6.7228   YZZZ      16.3515   ZZZZ     -80.0249
 -----------------------------------------------------------------
Archival summary:
1\1\tp-linux1\SP\HF\6-31G*\41(1+,2)\thomas\WedMar2213:52:162017WedMar2213:52:162017\0\\#,HF,6-31G*,\\1,2\C\F,1,1.21563\F,1,1.21575,2,117.855\F,1,1.21999,2,117.504,3,149.788,0\F,1,2.65743,2,97.685,3,-102.7,0\\HF=-435.164457\\@

 Total job time:  1499.12s(wall), 1433.00s(cpu) 
 Wed Mar 22 13:52:16 2017

        *************************************************************
        *                                                           *
        *  Thank you very much for using Q-Chem.  Have a nice day.  *
        *                                                           *
        *************************************************************


0 sent ACK to 0 
now end server 0 ... 
cleanup process ... done
