
Running Job 1 of 1 ddtraj1t41.inp
qchem ddtraj1t41.inp_11317.0 /scratch/qchem/qchem11317/ 1
/mnt/software/qchem/bin/mpi/mpirun_qchem -machinefile /mnt/software/qchem/bin/mpi/machines -np 1 /mnt/software/qchem/exe/qcprog.exe ddtraj1t41.inp_11317.0 /scratch/qchem/qchem11317/

Process 0 of 1 is on tp-linux1 - thread support 0
initial socket setup ...start
initial socket setup ...done 
now start server 0 ... 

cmd = ssh tp-linux1 /mnt/software/qchem/bin/get_hostid 1706843455 > /scratch/qchem/qchem11317/lic.dat
                  Welcome to Q-Chem
     A Quantum Leap Into The Future Of Chemistry


 Q-Chem 4.3, Q-Chem, Inc., Pleasanton, CA (2015)

 Y. Shao,  Z. Gan,  E. Epifanovsky,  A. T. B. Gilbert,  M. Wormit,  
 J. Kussmann,  A. W. Lange,  A. Behn,  J. Deng,  X. Feng,  D. Ghosh,  
 M. Goldey,  P. R. Horn,  L. D. Jacobson,  I. Kaliman,  R. Z. Khaliullin,  
 T. Kus,  A. Landau,  J. Liu,  E. I. Proynov,  Y. M. Rhee,  R. M. Richard,  
 M. A. Rohrdanz,  R. P. Steele,  E. J. Sundstrom,  H. L. Woodcock III,  
 P. M. Zimmerman,  D. Zuev,  B. Albrecht,  E. Alguire,  B. Austin,  
 S. A. Baeppler,  G. J. O. Beran,  Y. A. Bernard,  E. Berquist,  
 K. Brandhorst,  K. B. Bravaya,  S. T. Brown,  D. Casanova,  C.-M. Chang,  
 Y. Chen,  S. H. Chien,  K. D. Closser,  D. L. Crittenden,  M. Diedenhofen,  
 R. A. DiStasio Jr.,  H. Do,  A. D. Dutoi,  R. G. Edgar,  P.-T. Fang,  
 S. Fatehi,  Q. Feng,  L. Fusti-Molnar,  A. Ghysels,  
 A. Golubeva-Zadorozhnaya,  J. Gomes,  A. Gunina,  M. W. D. Hanson-Heine,  
 P. H. P. Harbach,  A. W. Hauser,  E. G. Hohenstein,  Z. C. Holden,  K. Hui,  
 T.-C. Jagau,  H. Ji,  B. Kaduk,  K. Khistyaev,  Jaehoon Kim,  Jihan Kim,  
 R. A. King,  P. Klunzinger,  D. Kosenkov,  T. Kowalczyk,  C. M. Krauter,  
 K. U. Lao,  A. Laurent,  K. V. Lawler,  S. Lehtola,  S. V. Levchenko,  
 C. Y. Lin,  Y.-S. Lin,  F. Liu,  E. Livshits,  R. C. Lochan,  A. Luenser,  
 P. Manohar,  S. F. Manzer,  S.-P. Mao,  N. Mardirossian,  A. V. Marenich,  
 L. A. Martinez-Martinez,  S. A. Maurer,  N. J. Mayhall,  K. Nanda,  
 C. M. Oana,  R. Olivares-Amaya,  D. P. O'Neill,  J. A. Parkhill,  
 T. M. Perrine,  R. Peverati,  P. A. Pieniazek,  F. Plasser,  A. Prociuk,  
 D. R. Rehn,  E. Rosta,  N. J. Russ,  N. Sergueev,  S. M. Sharada,  
 S. Sharma,  D. W. Small,  A. Sodt,  T. Stauch,  T. Stein,  D. Stuck,  
 Y.-C. Su,  A. J. W. Thom,  T. Tsuchimochi,  L. Vogt,  O. Vydrov,  T. Wang,  
 M. A. Watson,  J. Wenzel,  A. White,  C. F. Williams,  V. Vanovschi,  
 S. Yeganeh,  S. R. Yost,  Z.-Q. You,  I. Y. Zhang,  X. Zhang,  Y. Zhao,  
 B. R. Brooks,  G. K. L. Chan,  D. M. Chipman,  C. J. Cramer,  
 W. A. Goddard III,  M. S. Gordon,  W. J. Hehre,  A. Klamt,  
 H. F. Schaefer III,  M. W. Schmidt,  C. D. Sherrill,  D. G. Truhlar,  
 A. Warshel,  X. Xu,  A. Aspuru-Guzik,  R. Baer,  A. T. Bell,  N. A. Besley,  
 J.-D. Chai,  A. Dreuw,  B. D. Dunietz,  T. R. Furlani,  S. R. Gwaltney,  
 C.-P. Hsu,  Y. Jung,  J. Kong,  D. S. Lambrecht,  W. Liang,  C. Ochsenfeld,  
 V. A. Rassolov,  L. V. Slipchenko,  J. E. Subotnik,  T. Van Voorhis,  
 J. M. Herbert,  A. I. Krylov,  P. M. W. Gill,  M. Head-Gordon

 Contributors to earlier versions of Q-Chem not listed above: 
 R. D. Adamson,  J. Baker,  E. F. C. Byrd,  A. K. Chakraborty,  C.-L. Cheng,  
 H. Dachsel,  R. J. Doerksen,  G. Hawkins,  A. Heyden,  S. Hirata,  
 G. Kedziora,  F. J. Keil,  C. Kelley,  P. P. Korambath,  W. Kurlancheek,  
 A. M. Lee,  M. S. Lee,  D. Liotard,  I. Lotan,  P. E. Maslen,  N. Nair,  
 D. Neuhauser,  R. Olson,  B. Peters,  J. Ritchie,  N. E. Schultz,  
 N. Shenvi,  A. C. Simmonett,  K. S. Thanthiriwatte,  Q. Wu,  W. Zhang

 Please cite Q-Chem as follows:
 Y. Shao et al., Mol. Phys. 113, 184-215 (2015)
 DOI: 10.1080/00268976.2014.952696

 Q-Chem 4.3.0 for Intel X86 Linux

 Parts of Q-Chem use Armadillo 5.200.1 (Boston Tea Smuggler).
 http://arma.sourceforge.net/

 Q-Chem begins on Wed Mar 22 16:57:29 2017  

Host: 
0

     Scratch files written to /scratch/qchem/qchem11317//
 Nov1815 1189b_ 19540  19532 5443   
 Parallel job on  1  processors
Processing $rem in /mnt/software/qchem/config/preferences.
 MEM_TOTAL  2000 

Checking the input file for inconsistencies... 	...done.

--------------------------------------------------------------
User input:
--------------------------------------------------------------
$comment
XAS calculation for valence excited states for CF4+ using cvs-adc(2) + 6-31G* basis set
job 1 - determination of HF orbitals
$end

$molecule
1 2
6  -0.568298  2.722524  -0.155814
9  0.687536  2.59911  -0.104546
9  -1.043978  3.542863  0.678542
9  -1.50115  0.158094  0.85309
9  -1.022528  2.863118  -1.328669
$end

$comment
cvs-adc(2) calculation
$end

$rem
mem_total 3000
mem_static 1500
sym_ignore true
method cvs-adc(2)
basis 6-31G*
ee_singlets 20
cc_rest_occ 5                  !only excitations from the lowest N orbitals
unrestricted  true
max_scf_cycles 200
SCF_ALGORITHM = DIIS_GDM
SCF_CONVERGENCE = 7
THRESH = 10
$end
--------------------------------------------------------------
 ----------------------------------------------------------------
             Standard Nuclear Orientation (Angstroms)
    I     Atom           X                Y                Z
 ----------------------------------------------------------------
    1      C      -0.5682980000     2.7225240000    -0.1558140000
    2      F       0.6875360000     2.5991100000    -0.1045460000
    3      F      -1.0439780000     3.5428630000     0.6785420000
    4      F      -1.5011500000     0.1580940000     0.8530900000
    5      F      -1.0225280000     2.8631180000    -1.3286690000
 ----------------------------------------------------------------
 Nuclear Repulsion Energy =   175.6021626574 hartrees
 There are       21 alpha and       20 beta electrons
 Requested basis set is 6-31G(d)
 There are 20 shells and 75 basis functions

 Total QAlloc Memory Limit   3000 MB
 Mega-Array Size      1467 MB
 MEM_STATIC part      1500 MB

                       Distance Matrix (Angstroms)
             C (  1)   F (  2)   F (  3)   F (  4)
   F (  2)  1.262925
   F (  3)  1.263083  2.121800
   F (  4)  2.909364  3.415549  3.419961
   F (  5)  1.265575  2.119551  2.119295  3.508035
 
 tim1(1): 
  0.000000000000000E+000
 tim1(2): 
  0.000000000000000E+000
 A cutoff of  1.0D-10 yielded    187 shell pairs
 There are      2866 function pairs
 
 -------------------------------------------------------
 OpenMP Integral Computing Module                       
 Release: version 1.0, May 2013, Q-Chem Inc. Pittsburgh 
 -------------------------------------------------------
 Integral Job Info:
 Integral job number is                      11
 Integral operator is                         1
 short-range coefficients                     0
 long-range coefficients              100000000
 Omega coefficients                           0
 if combine SR and LR in K                    0
 Integral screening is                        0
 Integral computing path is                   2
 max size of driver memory is            800000
 size of driver memory is                593474
 size of scratch memory is              2260544
 max col of scratch BK array               1296
 max len of scratch array in speh3          155
 max len of scratch index in speh4           18
 max int batch size is                      520
 min int batch size is                       52
 fixed nKL is                                52
 max L of basis functions is                  2
 order of int derivative is                   0
 number of shells is                         20
 number of basis is                          75
 number of cartesian basis is                75
 number of contracted shell pairs           187
 number of primitive shell pairs            941
 maxK2 (contraction) of shell pair           36
 max number of K2 of shell pair               1
 max number of CS2 of shell pair             32
 max number of PS2 of shell pair            192
 mem total for path MDJ                   18100
 -------------------------------------------------------
 Smallest overlap matrix eigenvalue = 3.42E-03

 Scale SEOQF with 1.000000e-01/1.000000e-01/1.000000e+00

 Standard Electronic Orientation quadrupole field applied
 Nucleus-field energy     =    -0.0000000062 hartrees
 Guess from superposition of atomic densities
 Warning:  Energy on first SCF cycle will be non-variational
 An unrestricted Hartree-Fock SCF calculation will be
 performed using Pulay DIIS + Geometric Direct Minimization
 SCF converges when RMS gradient is below 1.0E-07
 ---------------------------------------
  Cycle       Energy         DIIS Error
 ---------------------------------------
    1    -436.0576534259      8.33E-02
    2    -434.9172673281      1.84E-02
    3    -435.0813732958      9.73E-03 Done DIIS. Switching to GDM
    4    -435.1251519621      9.58E-03 Normal BFGS step
    5    -435.1264925544      1.09E-02 Normal BFGS step
    6    -435.1270060648      2.50E-03 Normal BFGS step
    7    -435.1270465073      2.47E-03 Normal BFGS step
    8    -435.1270588352      2.44E-03 Normal BFGS step
    9    -435.1270768829      2.35E-03 Normal BFGS step
   10    -435.1271121089      2.13E-03 Normal BFGS step
   11    -435.1271766172      2.14E-03 Normal BFGS step
   12    -435.1272620061      2.21E-03 Normal BFGS step
   13    -435.1273220843      1.26E-03 Normal BFGS step
   14    -435.1273399925      3.32E-04 Normal BFGS step
   15    -435.1273415471      1.02E-04 Normal BFGS step
   16    -435.1273416536      4.51E-05 Normal BFGS step
   17    -435.1273416637      2.45E-05 Normal BFGS step
   18    -435.1273416661      1.10E-05 Normal BFGS step
   19    -435.1273416673      1.04E-05 Normal BFGS step
   20    -435.1273416678      1.04E-05 Normal BFGS step
   21    -435.1273416680      1.04E-05 Normal BFGS step
   22    -435.1273416685      1.04E-05 Normal BFGS step
   23    -435.1273416693      1.19E-05 Normal BFGS step
   24    -435.1273416713      2.10E-05 Normal BFGS step
   25    -435.1273416763      3.49E-05 Normal BFGS step
   26    -435.1273416892      5.73E-05 Normal BFGS step
   27    -435.1273417229      9.28E-05 Normal BFGS step
   28    -435.1273418097      1.50E-04 Normal BFGS step
   29    -435.1273419984      2.33E-04 Normal BFGS step
   30    -435.1273422510      3.90E-04 Normal BFGS step
   31    -435.1273428671      5.08E-04 Normal BFGS step
   32    -435.1273442071      2.71E-04 Normal BFGS step
   33    -435.1273445852      2.78E-04 Normal BFGS step
   34    -435.1273459237      1.65E-04 Dog-leg BFGS step
   35    -435.1272620720      3.64E-03 Line search: overstep
   36    -435.1273462111      2.99E-04 Normal BFGS step
   37    -435.1273469309      6.45E-04 Normal BFGS step
   38    -435.1273479713      2.17E-04 Normal BFGS step
   39    -435.1273485182      4.93E-04 Normal BFGS step
   40    -435.1273492818      3.11E-04 Normal BFGS step
   41    -435.1273501669      5.22E-04 Normal BFGS step
   42    -435.1273509642      3.26E-04 Normal BFGS step
   43    -435.1273478720      8.29E-04 Line search: overstep
   44    -435.1273515368      3.15E-04 Dog-leg BFGS step
   45    -435.1273508733      5.88E-04 Line search: overstep
   46    -435.1273520619      2.95E-04 Normal BFGS step
   47    -435.1273525885      3.29E-04 Normal BFGS step
   48    -435.1273528204      3.46E-04 Normal BFGS step
   49    -435.1273537316      1.60E-04 Normal BFGS step
   50    -435.1273535974      4.92E-04 Line search: overstep
   51    -435.1273539051      3.34E-04 Normal BFGS step
   52    -435.1273545329      3.71E-04 Normal BFGS step
   53    -435.1273550982      8.99E-05 Normal BFGS step
   54    -435.1273550748      3.13E-04 Line search: overstep
   55    -435.1273554073      1.62E-04 Normal BFGS step
   56    -435.1273555226      3.94E-04 Normal BFGS step
   57    -435.1273557658      9.25E-05 Normal BFGS step
   58    -435.1273558811      7.18E-05 Normal BFGS step
   59    -435.1273559966      2.22E-04 Normal BFGS step
   60    -435.1273561032      7.27E-05 Normal BFGS step
   61    -435.1273562125      7.82E-05 Normal BFGS step
   62    -435.1273562562      2.96E-04 Normal BFGS step
   63    -435.1273564317      7.04E-05 Normal BFGS step
   64    -435.1273565210      6.78E-05 Normal BFGS step
   65    -435.1273537200      6.68E-04 Line search: overstep
   66    -435.1273565730      6.56E-05 Normal BFGS step
   67    -435.1273564975      2.03E-04 Line search: overstep
   68    -435.1273566551      1.04E-04 Normal BFGS step
   69    -435.1273567437      1.48E-04 Normal BFGS step
   70    -435.1273568652      4.22E-05 Normal BFGS step
   71    -435.1273569046      5.57E-05 Normal BFGS step
   72    -435.1273569277      2.25E-05 Normal BFGS step
   73    -435.1273569326      1.40E-05 Normal BFGS step
   74    -435.1273569345      6.98E-06 Normal BFGS step
   75    -435.1273569350      4.90E-06 Normal BFGS step
   76    -435.1273569352      3.97E-06 Normal BFGS step
   77    -435.1273569352      3.58E-06 Normal BFGS step
   78    -435.1273569353      2.82E-06 Normal BFGS step
   79    -435.1273569353      1.99E-06 Normal BFGS step
   80    -435.1273569355      3.45E-06 Normal BFGS step
   81    -435.1273569356      4.06E-06 Normal BFGS step
   82    -435.1273569358      2.76E-06 Normal BFGS step
   83    -435.1273569359      9.86E-07 Normal BFGS step
   84    -435.1273569359      3.85E-07 Normal BFGS step
   85    -435.1273569359      4.52E-07 Normal BFGS step
   86    -435.1273569359      1.49E-07 Normal BFGS step
   87    -435.1273569359      7.14E-08 Convergence criterion met
 ---------------------------------------
 <S^2> = 0.7531
 SCF time:  CPU 12.78 s  wall 17.92 s
 SCF   energy in the final basis set = -435.1273569359
 Total energy in the final basis set = -435.1273569359
================================================================================
|                                                                              |
|                                 A D C  M A N                                 |
|                                                                              |
 ------------------------------------------------------------------------------ 
|                                                                              |
| Components:                                                                  |
|                                                                              |
| - libvmm - 1.2-release                                                       |
|   Authors:                                                                   |
|   Evgeny Epifanovsky, Ilya Kaliman                                           |
|                                                                              |
| - libtensor - 2.4-trunk                                                      |
|   Authors:                                                                   |
|   Evgeny Epifanovsky, Michael Wormit, Dmitry Zuev, Sam Manzer                |
|                                                                              |
| - libwfa - 1.1-beta                                                          |
|   Authors:                                                                   |
|   Felix Plasser, Stefanie Baeppler, Benjamin Thomitzni, Michael Wormit       |
|                                                                              |
| - libadc - 1.0-beta                                                          |
|   Authors:                                                                   |
|   Michael Wormit, Philipp H. P. Harbach, Caroline Krauter, Dirk Rehn,        |
|   Matthias Schneider, Jan Wenzel                                             |
|                                                                              |
| - adcman - 2.4-beta                                                          |
|   Authors:                                                                   |
|   Michael Wormit, Philipp H. P. Harbach, Caroline Krauter, Dirk Rehn,        |
|   Jan Wenzel, Andreas Dreuw                                                  |
|                                                                              |
| Authors of earlier versions of ADCMAN:                                       |
| Andreas Dreuw, Jan Hendrik Starcke, Dirk Rehn, Michael Wormit                |
|                                                                              |
================================================================================

 
 Alpha MOs, Unrestricted
 -- Occupied --                  
-26.740 -26.740 -26.739 -26.608 -11.969  -2.138  -2.032  -2.030
  1 A     2 A     3 A     4 A     5 A     6 A     7 A     8 A                  
 -1.858  -1.316  -1.213  -1.212  -1.160  -1.057  -1.056  -1.027
  9 A    10 A    11 A    12 A    13 A    14 A    15 A    16 A                  
 -1.025  -1.024  -1.010  -0.919  -0.916
 17 A    18 A    19 A    20 A    21 A                                          
 -- Virtual --                   
 -0.302   0.100   0.120   0.121   0.336   0.377   0.378   0.400
 22 A    23 A    24 A    25 A    26 A    27 A    28 A    29 A                  
  0.925   1.016   1.017   1.038   1.060   1.063   1.172   1.208
 30 A    31 A    32 A    33 A    34 A    35 A    36 A    37 A                  
  1.236   1.287   1.288   1.314   1.318   1.320   1.411   1.479
 38 A    39 A    40 A    41 A    42 A    43 A    44 A    45 A                  
  1.629   1.629   1.738   1.746   1.783   1.804   1.813   1.819
 46 A    47 A    48 A    49 A    50 A    51 A    52 A    53 A                  
  1.852   1.863   1.902   1.924   1.943   1.983   1.988   2.049
 54 A    55 A    56 A    57 A    58 A    59 A    60 A    61 A                  
  2.063   2.476   2.480   2.528   2.823   2.823   3.106   3.108
 62 A    63 A    64 A    65 A    66 A    67 A    68 A    69 A                  
  3.131   3.583   4.229   4.412   4.414   4.709
 70 A    71 A    72 A    73 A    74 A    75 A                                  
 
 Beta MOs, Unrestricted
 -- Occupied --                  
-26.740 -26.740 -26.739 -26.560 -11.969  -2.138  -2.032  -2.030
  1 A     2 A     3 A     4 A     5 A     6 A     7 A     8 A                  
 -1.664  -1.316  -1.213  -1.212  -1.160  -1.057  -1.056  -1.026
  9 A    10 A    11 A    12 A    13 A    14 A    15 A    16 A                  
 -1.025  -1.010  -0.865  -0.864
 17 A    18 A    19 A    20 A                                                  
 -- Virtual --                   
 -0.302  -0.106   0.100   0.120   0.123   0.340   0.377   0.379
 21 A    22 A    23 A    24 A    25 A    26 A    27 A    28 A                  
  0.400   0.952   1.016   1.017   1.041   1.063   1.063   1.222
 29 A    30 A    31 A    32 A    33 A    34 A    35 A    36 A                  
  1.259   1.287   1.289   1.314   1.316   1.320   1.388   1.414
 37 A    38 A    39 A    40 A    41 A    42 A    43 A    44 A                  
  1.489   1.630   1.630   1.746   1.747   1.783   1.814   1.819
 45 A    46 A    47 A    48 A    49 A    50 A    51 A    52 A                  
  1.821   1.929   1.948   1.952   1.964   1.968   1.987   1.988
 53 A    54 A    55 A    56 A    57 A    58 A    59 A    60 A                  
  2.053   2.063   2.476   2.480   2.529   2.823   2.824   3.106
 61 A    62 A    63 A    64 A    65 A    66 A    67 A    68 A                  
  3.108   3.132   3.623   4.229   4.412   4.414   4.709
 69 A    70 A    71 A    72 A    73 A    74 A    75 A                          
 

--------------------------------------------------------------------------------
                                   HF Summary                                   
--------------------------------------------------------------------------------
  Energy:                                                 -435.1273569359 a.u.
  Dip. moment [a.u.]:                  [ -54.252823,  181.838286,    0.099136]
  Total dipole [Debye]:                                             482.319781
  <r^2> [a.u.]:                        [ 177.045773, 1034.322506,  111.369378]
  Total <r^2> [a.u.]:                                              1322.737657
--------------------------------------------------------------------------------

--------------------------------------------------------------------------------
                                 MP(2) Summary                                  
--------------------------------------------------------------------------------
  Energy contribution:                                      -0.7556593897 a.u.
  Total energy:                                           -435.8830163256 a.u.
  Dip. moment [a.u.]:                  [ -54.320670,  181.665649,    0.157047]
  Total dipole [Debye]:                                             481.948789
  <r^2> [a.u.]:                        [ 176.868773, 1032.503533,  110.993462]
  Total <r^2> [a.u.]:                                              1320.365768
--------------------------------------------------------------------------------
  Starting Davidson ... 
--------------------------------------------------------------------------------
   It NVec Conv  Avg. Norm  Max. Norm  Conv. states           Remark
--------------------------------------------------------------------------------
        20    0  2.045e-01  1.124e+00 10.9231 n n n n n n n n Guess.
    1   40    0  5.894e-02  6.475e-01 10.7560 n n n n n n n n 
    2   60    0  1.280e-02  1.425e-01 10.7546 n n n n n n n n 
    3   80    0  4.918e-03  5.527e-02 10.7546 n n n n n n n n 
    4  100    0  2.576e-03  3.100e-02 10.7546 n n n n n n n n 
    5   40    0  2.662e-03  3.503e-02 10.7546 n n n n n n n n Subspace collapsed.
    6   60    0  2.832e-03  3.708e-02 10.7546 n n n n n n n n 
    7   80    0  2.423e-03  3.059e-02 10.7546 n n n n n n n n 
    8  100    2  2.091e-03  2.782e-02 10.7546 y y n n n n n n 
    9   40    7  1.141e-03  1.462e-02 10.7546 y y y y n y y y Subspace collapsed.
   10   60    8  8.561e-04  1.037e-02 10.7546 y y y y n y y y 
   11   80    9  4.873e-04  6.106e-03 10.7546 y y y y y y y y 
   12  100   12  5.871e-04  8.114e-03 10.7546 y y y y y y y y 
   13   40   17  3.528e-04  4.670e-03 10.7546 y y y y y y y y Subspace collapsed.
   14   60   17  4.445e-04  6.467e-03 10.7546 y y y y y y y y 
   15   80   17  4.345e-04  7.236e-03 10.7546 y y y y y y y y 
   16  100   17  5.639e-04  1.028e-02 10.7546 y y y y y y y y 
   17   20   17  5.639e-04  1.028e-02 10.7546 y y y y y y y y Subspace collapsed.
   18   20   17  5.639e-04  1.028e-02 10.7546 y y y y y y y y 
   19   40   17  3.280e-04  6.164e-03 10.7546 y y y y y y y y 
   20   58   17  2.648e-04  4.931e-03 10.7546 y y y y y y y y 
   21   60   17  2.649e-04  4.933e-03 10.7546 y y y y y y y y 
   22   62   17  2.652e-04  4.937e-03 10.7546 y y y y y y y y 
   23   64   17  2.653e-04  4.940e-03 10.7546 y y y y y y y y 
   24   65   17  2.653e-04  4.942e-03 10.7546 y y y y y y y y 
   25   65   17  2.653e-04  4.942e-03 10.7546 y y y y y y y y 
   26   65   17  2.653e-04  4.942e-03 10.7546 y y y y y y y y 
   27   85   17  2.235e-04  4.305e-03 10.7546 y y y y y y y y 
   28   85   17  2.235e-04  4.305e-03 10.7546 y y y y y y y y 
   29   86   17  2.236e-04  4.307e-03 10.7546 y y y y y y y y 
   30   86   17  2.236e-04  4.307e-03 10.7546 y y y y y y y y 
   31   87   17  2.238e-04  4.311e-03 10.7546 y y y y y y y y 
   32   88   17  2.238e-04  4.312e-03 10.7546 y y y y y y y y 
   33   89   17  2.242e-04  4.320e-03 10.7546 y y y y y y y y 
   34   91   17  2.295e-04  4.425e-03 10.7546 y y y y y y y y 
   35   94   15  2.284e-04  4.381e-03 10.7546 y n y y y y y y 
   36   97    5  2.285e-04  4.368e-03 10.7546 n n n y n n n n 
   37  100    0  2.442e-04  4.637e-03 10.7546 n n n n n n n n 
   38   28    0  2.328e-04  4.455e-03 10.7546 n n n n n n n n Subspace collapsed.
   39   48    3  1.743e-04  3.358e-03 10.7546 n n n y n n n n 
   40   68   12  3.107e-04  6.086e-03 10.7546 n n n n y y y y 
   41   88    2  4.253e-04  8.355e-03 10.7546 n n n n n n n n 
   42  100    0  4.778e-04  9.343e-03 10.7546 n n n n n n n n 
   43   40    0  2.829e-04  5.445e-03 10.7546 n n n n n n n n Subspace collapsed.
   44   60    2  2.275e-04  4.156e-03 10.7546 n n n n n n n n 
   45   80   11  2.333e-04  3.847e-03 10.7546 y y y n y y y y 
   46  100   16  4.795e-04  8.993e-03 10.7546 y y y y y y y y 
   47   40   17  2.427e-04  4.746e-03 10.7546 y y y y y y y y Subspace collapsed.
   48   60   17  2.263e-04  4.458e-03 10.7546 y y y y y y y y 
   49   80   17  2.140e-04  4.234e-03 10.7546 y y y y y y y y 
   50  100   17  3.463e-04  6.875e-03 10.7546 y y y y y y y y 
   51   40   17  1.830e-04  3.640e-03 10.7546 y y y y y y y y Subspace collapsed.
   52   44   17  1.813e-04  3.607e-03 10.7546 y y y y y y y y 
   53   47   17  1.842e-04  3.665e-03 10.7546 y y y y y y y y 
   54   48   17  1.842e-04  3.664e-03 10.7546 y y y y y y y y 
   55   48   17  1.842e-04  3.664e-03 10.7546 y y y y y y y y 
   56   68   17  2.297e-04  4.573e-03 10.7546 y y y y y y y y 
   57   70   17  2.298e-04  4.577e-03 10.7546 y y y y y y y y 
   58   81   17  2.329e-04  4.641e-03 10.7546 y y y y y y y y 
   59   81   17  2.329e-04  4.641e-03 10.7546 y y y y y y y y 
--------------------------------------------------------------------------------
  Davidson Summary: 
 ------------------------------------------------------------
  State  0: excitation energy =  10.7546 a.u.   (converged)
  State  1: excitation energy =  10.8252 a.u.   (converged)
  State  2: excitation energy =  11.1581 a.u.   (converged)
  State  3: excitation energy =  11.1610 a.u.   (converged)
  State  4: excitation energy =  11.1749 a.u.   (converged)
  State  5: excitation energy =  11.2320 a.u.   (converged)
  State  6: excitation energy =  11.2340 a.u.   (converged)
  State  7: excitation energy =  11.2479 a.u.   (converged)
  State  8: excitation energy =  11.2493 a.u.   (converged)
  State  9: excitation energy =  11.5385 a.u.   (converged)
  State 10: excitation energy =  11.5702 a.u.   (converged)
  State 11: excitation energy =  11.5706 a.u.   (converged)
  State 12: excitation energy =  11.5776 a.u.   (converged)
  State 13: excitation energy =  11.5804 a.u.   (converged)
  State 14: excitation energy =  11.5888 a.u.   (converged)
  State 15: excitation energy =  11.5893 a.u.   (converged)
  State 16: excitation energy =  11.6071 a.u.   (converged)
  State 17: excitation energy =  12.2210 a.u.   (not converged)
  State 18: excitation energy =  12.2212 a.u.   (not converged)
  State 19: excitation energy =  12.2239 a.u.   (not converged)
 ------------------------------------------------------------


--------------------------------------------------------------------------------
                             Excited State Summary
--------------------------------------------------------------------------------

  Excited state  1 (A)                                             [converged]
  ----------------------------------------------------------------------------
  Term symbol:  2 (-) A                                     R^2 =  3.50894e-13

  Total energy:                                           -425.1284456623 a.u.
  Excitation energy:                                             292.646751 eV

  Osc. strength:                                                      0.000000
  Trans. dip. moment [a.u.]:           [   0.000067,    0.000170,   -0.000057]
  <i|r^2|0> [a.u.]:                    [  -0.000157,    0.001719,    0.000021]

  V1^2 = 0.9553, V2^2 = 0.0447

  Important amplitudes:
     core i     occ j      vir a      vir b          v   
    ------------------------------------------------------
     5 (A) A              22 (A) A                 0.6574
     5 (A) B              21 (A) B                -0.6549
    ------------------------------------------------------
  ----------------------------------------------------------------------------


  Excited state  2 (A)                                             [converged]
  ----------------------------------------------------------------------------
  Term symbol:  3 (-) A                                     R^2 =  4.51710e-13

  Total energy:                                           -425.0578498967 a.u.
  Excitation energy:                                             294.567759 eV

  Osc. strength:                                                      0.089652
  Trans. dip. moment [a.u.]:           [   0.038961,    0.099017,   -0.033171]
  <i|r^2|0> [a.u.]:                    [  -0.092819,    1.006063,    0.010566]

  V1^2 = 0.9497, V2^2 = 0.0503

  Important amplitudes:
     core i     occ j      vir a      vir b          v   
    ------------------------------------------------------
     5 (A) B              21 (A) B                 0.6677
     5 (A) A              22 (A) A                 0.6652
    ------------------------------------------------------
  ----------------------------------------------------------------------------


  Excited state  3 (A)                                             [converged]
  ----------------------------------------------------------------------------
  Term symbol:  4 (-) A                                     R^2 =  1.97610e-12

  Total energy:                                           -424.7248736144 a.u.
  Excitation energy:                                             303.628505 eV

  Osc. strength:                                                      0.000000
  Trans. dip. moment [a.u.]:           [   0.000016,    0.000003,    0.000038]
  <i|r^2|0> [a.u.]:                    [  -0.000035,    0.000031,   -0.000020]

  V1^2 = 0.9499, V2^2 = 0.0501

  Important amplitudes:
     core i     occ j      vir a      vir b          v   
    ------------------------------------------------------
     5 (A) B              24 (A) B                 0.5585
     5 (A) A              24 (A) A                -0.5580
    ------------------------------------------------------
  ----------------------------------------------------------------------------


  Excited state  4 (A)                                             [converged]
  ----------------------------------------------------------------------------
  Term symbol:  5 (-) A                                     R^2 =  1.87673e-12

  Total energy:                                           -424.7219959991 a.u.
  Excitation energy:                                             303.706809 eV

  Osc. strength:                                                      0.000000
  Trans. dip. moment [a.u.]:           [  -0.000124,    0.000067,    0.000052]
  <i|r^2|0> [a.u.]:                    [   0.000278,    0.000679,   -0.000034]

  V1^2 = 0.9498, V2^2 = 0.0502

  Important amplitudes:
     core i     occ j      vir a      vir b          v   
    ------------------------------------------------------
     5 (A) B              25 (A) B                -0.5560
     5 (A) A              25 (A) A                 0.5539
    ------------------------------------------------------
  ----------------------------------------------------------------------------


  Excited state  5 (A)                                             [converged]
  ----------------------------------------------------------------------------
  Term symbol:  6 (-) A                                     R^2 =  6.90804e-13

  Total energy:                                           -424.7081435719 a.u.
  Excitation energy:                                             304.083753 eV

  Osc. strength:                                                      0.000000
  Trans. dip. moment [a.u.]:           [  -0.000026,   -0.000064,    0.000019]
  <i|r^2|0> [a.u.]:                    [   0.000058,   -0.000659,   -0.000009]

  V1^2 = 0.9284, V2^2 = 0.0716

  Important amplitudes:
     core i     occ j      vir a      vir b          v   
    ------------------------------------------------------
     5 (A) A              23 (A) A                -0.6004
     5 (A) B              23 (A) B                 0.5998
    ------------------------------------------------------
  ----------------------------------------------------------------------------


  Excited state  6 (A)                                             [converged]
  ----------------------------------------------------------------------------
  Term symbol:  7 (-) A                                     R^2 =  8.66364e-13

  Total energy:                                           -424.6509746933 a.u.
  Excitation energy:                                             305.639397 eV

  Osc. strength:                                                      0.113482
  Trans. dip. moment [a.u.]:           [  -0.052289,   -0.014566,   -0.110494]
  <i|r^2|0> [a.u.]:                    [   0.116627,   -0.147177,    0.059537]

  V1^2 = 0.9412, V2^2 = 0.0588

  Important amplitudes:
     core i     occ j      vir a      vir b          v   
    ------------------------------------------------------
     5 (A) A              24 (A) A                -0.5925
     5 (A) B              24 (A) B                -0.5922
    ------------------------------------------------------
  ----------------------------------------------------------------------------


  Excited state  7 (A)                                             [converged]
  ----------------------------------------------------------------------------
  Term symbol:  8 (-) A                                     R^2 =  3.06603e-12

  Total energy:                                           -424.6489938850 a.u.
  Excitation energy:                                             305.693297 eV

  Osc. strength:                                                      0.104150
  Trans. dip. moment [a.u.]:           [   0.098222,   -0.051973,   -0.039468]
  <i|r^2|0> [a.u.]:                    [  -0.217899,   -0.531297,    0.026614]

  V1^2 = 0.9340, V2^2 = 0.0660

  Important amplitudes:
     core i     occ j      vir a      vir b          v   
    ------------------------------------------------------
     5 (A) A              25 (A) A                 0.5725
     5 (A) B              25 (A) B                 0.5538
    ------------------------------------------------------
  ----------------------------------------------------------------------------


  Excited state  8 (A)                                             [converged]
  ----------------------------------------------------------------------------
  Term symbol:  9 (-) A                                     R^2 =  9.42482e-13

  Total energy:                                           -424.6350677244 a.u.
  Excitation energy:                                             306.072247 eV

  Osc. strength:                                                      0.009355
  Trans. dip. moment [a.u.]:           [   0.029077,   -0.015904,   -0.012210]
  <i|r^2|0> [a.u.]:                    [  -0.064476,   -0.162861,    0.008109]

  V1^2 = 0.8549, V2^2 = 0.1451

  Important amplitudes:
     core i     occ j      vir a      vir b          v   
    ------------------------------------------------------
     5 (A) B              22 (A) B                -0.8757
     5 (A) B              25 (A) B                 0.2091
    ------------------------------------------------------
  ----------------------------------------------------------------------------


  Excited state  9 (A)                                             [converged]
  ----------------------------------------------------------------------------
  Term symbol:  10 (-) A                                    R^2 =  7.66089e-13

  Total energy:                                           -424.6336735762 a.u.
  Excitation energy:                                             306.110184 eV

  Osc. strength:                                                      0.028782
  Trans. dip. moment [a.u.]:           [  -0.023171,   -0.055211,    0.015894]
  <i|r^2|0> [a.u.]:                    [   0.032735,   -0.592895,   -0.026347]

  V1^2 = 0.9157, V2^2 = 0.0843

  Important amplitudes:
     core i     occ j      vir a      vir b          v   
    ------------------------------------------------------
     5 (A) B              23 (A) B                -0.6310
     5 (A) A              23 (A) A                -0.6306
    ------------------------------------------------------
  ----------------------------------------------------------------------------


  Excited state 10 (A)                                             [converged]
  ----------------------------------------------------------------------------
  Term symbol:  11 (-) A                                    R^2 =  1.34868e-11

  Total energy:                                           -424.3445196146 a.u.
  Excitation energy:                                             313.978464 eV

  Osc. strength:                                                      0.000031
  Trans. dip. moment [a.u.]:           [  -0.000663,   -0.001763,    0.000660]
  <i|r^2|0> [a.u.]:                    [   0.001908,   -0.017681,    0.000096]

  V1^2 = 0.9140, V2^2 = 0.0860

  Important amplitudes:
     core i     occ j      vir a      vir b          v   
    ------------------------------------------------------
     5 (A) A              26 (A) A                 0.6140
     5 (A) B              26 (A) B                -0.5708
    ------------------------------------------------------
  ----------------------------------------------------------------------------


  Excited state 11 (A)                                             [converged]
  ----------------------------------------------------------------------------
  Term symbol:  12 (-) A                                    R^2 =  9.39586e-11

  Total energy:                                           -424.3127747318 a.u.
  Excitation energy:                                             314.842286 eV

  Osc. strength:                                                      0.000068
  Trans. dip. moment [a.u.]:           [   0.002459,   -0.001310,   -0.001042]
  <i|r^2|0> [a.u.]:                    [  -0.005319,   -0.013492,    0.000661]

  V1^2 = 0.8951, V2^2 = 0.1049

  Important amplitudes:
     core i     occ j      vir a      vir b          v   
    ------------------------------------------------------
     5 (A) A              28 (A) A                -0.5703
     5 (A) B              28 (A) B                 0.5220
    ------------------------------------------------------
  ----------------------------------------------------------------------------


  Excited state 12 (A)                                             [converged]
  ----------------------------------------------------------------------------
  Term symbol:  13 (-) A                                    R^2 =  4.59370e-11

  Total energy:                                           -424.3124357134 a.u.
  Excitation energy:                                             314.851511 eV

  Osc. strength:                                                      0.000004
  Trans. dip. moment [a.u.]:           [  -0.000206,   -0.000649,    0.000161]
  <i|r^2|0> [a.u.]:                    [   0.000587,   -0.006538,    0.000050]

  V1^2 = 0.8953, V2^2 = 0.1047

  Important amplitudes:
     core i     occ j      vir a      vir b          v   
    ------------------------------------------------------
     5 (A) B              27 (A) B                 0.5452
     5 (A) A              27 (A) A                -0.5448
    ------------------------------------------------------
  ----------------------------------------------------------------------------


  Excited state 13 (A)                                             [converged]
  ----------------------------------------------------------------------------
  Term symbol:  14 (-) A                                    R^2 =  5.09435e-11

  Total energy:                                           -424.3054254898 a.u.
  Excitation energy:                                             315.042269 eV

  Osc. strength:                                                      0.000621
  Trans. dip. moment [a.u.]:           [  -0.003504,   -0.008026,    0.001951]
  <i|r^2|0> [a.u.]:                    [   0.009280,   -0.080915,    0.000589]

  V1^2 = 0.8893, V2^2 = 0.1107

  Important amplitudes:
     core i     occ j      vir a      vir b          v   
    ------------------------------------------------------
     5 (A) B              29 (A) B                -0.5359
     5 (A) A              29 (A) A                 0.5336
    ------------------------------------------------------
  ----------------------------------------------------------------------------


  Excited state 14 (A)                                             [converged]
  ----------------------------------------------------------------------------
  Term symbol:  15 (-) A                                    R^2 =  1.13424e-11

  Total energy:                                           -424.3026485549 a.u.
  Excitation energy:                                             315.117833 eV

  Osc. strength:                                                      0.034546
  Trans. dip. moment [a.u.]:           [  -0.027776,   -0.059727,    0.011656]
  <i|r^2|0> [a.u.]:                    [   0.072126,   -0.602764,    0.005424]

  V1^2 = 0.9070, V2^2 = 0.0930

  Important amplitudes:
     core i     occ j      vir a      vir b          v   
    ------------------------------------------------------
     5 (A) B              26 (A) B                 0.6984
     5 (A) A              26 (A) A                 0.5912
    ------------------------------------------------------
  ----------------------------------------------------------------------------


  Excited state 15 (A)                                             [converged]
  ----------------------------------------------------------------------------
  Term symbol:  16 (-) A                                    R^2 =  8.56067e-12

  Total energy:                                           -424.2941992796 a.u.
  Excitation energy:                                             315.347750 eV

  Osc. strength:                                                      0.034922
  Trans. dip. moment [a.u.]:           [   0.054172,   -0.030230,   -0.025915]
  <i|r^2|0> [a.u.]:                    [  -0.117061,   -0.311194,    0.016236]

  V1^2 = 0.8982, V2^2 = 0.1018

  Important amplitudes:
     core i     occ j      vir a      vir b          v   
    ------------------------------------------------------
     5 (A) B              28 (A) B                -0.6075
     5 (A) A              28 (A) A                -0.5590
    ------------------------------------------------------
  ----------------------------------------------------------------------------


  Excited state 16 (A)                                             [converged]
  ----------------------------------------------------------------------------
  Term symbol:  17 (-) A                                    R^2 =  4.91035e-11

  Total energy:                                           -424.2937331790 a.u.
  Excitation energy:                                             315.360433 eV

  Osc. strength:                                                      0.034834
  Trans. dip. moment [a.u.]:           [  -0.028569,    0.000877,   -0.060759]
  <i|r^2|0> [a.u.]:                    [   0.059980,    0.007462,    0.033305]

  V1^2 = 0.8985, V2^2 = 0.1015

  Important amplitudes:
     core i     occ j      vir a      vir b          v   
    ------------------------------------------------------
     5 (A) B              27 (A) B                 0.5819
     5 (A) A              27 (A) A                 0.5791
    ------------------------------------------------------
  ----------------------------------------------------------------------------


  Excited state 17 (A)                                             [converged]
  ----------------------------------------------------------------------------
  Term symbol:  18 (-) A                                    R^2 =  8.64380e-12

  Total energy:                                           -424.2759458175 a.u.
  Excitation energy:                                             315.844452 eV

  Osc. strength:                                                      0.003791
  Trans. dip. moment [a.u.]:           [   0.007614,    0.019640,   -0.006796]
  <i|r^2|0> [a.u.]:                    [   0.004438,    0.222511,    0.024859]

  V1^2 = 0.8984, V2^2 = 0.1016

  Important amplitudes:
     core i     occ j      vir a      vir b          v   
    ------------------------------------------------------
     5 (A) A              29 (A) A                -0.6396
     5 (A) B              29 (A) B                -0.6388
    ------------------------------------------------------
  ----------------------------------------------------------------------------


  Excited state 18 (A)                                         [not converged]
  ----------------------------------------------------------------------------
  Term symbol:  19 (-) A                                    R^2 =  4.64117e-03

  Total energy:                                           -423.6620062531 a.u.
  Excitation energy:                                             332.550597 eV


  V1^2 = 0.8693, V2^2 = 0.1307

  Important amplitudes:
     core i     occ j      vir a      vir b          v   
    ------------------------------------------------------
     5 (A) B              31 (A) B                 0.6227
     5 (A) B              35 (A) B                 0.6071
    ------------------------------------------------------
  ----------------------------------------------------------------------------


  Excited state 19 (A)                                         [not converged]
  ----------------------------------------------------------------------------
  Term symbol:  20 (-) A                                    R^2 =  3.75744e-04

  Total energy:                                           -423.6618022498 a.u.
  Excitation energy:                                             332.556148 eV


  V1^2 = 0.8678, V2^2 = 0.1322

  Important amplitudes:
     core i     occ j      vir a      vir b          v   
    ------------------------------------------------------
     5 (A) A              32 (A) A                 0.4608
     5 (A) B              32 (A) B                -0.4563
    ------------------------------------------------------
  ----------------------------------------------------------------------------


  Excited state 20 (A)                                         [not converged]
  ----------------------------------------------------------------------------
  Term symbol:  21 (-) A                                    R^2 =  8.82841e-05

  Total energy:                                           -423.6590837227 a.u.
  Excitation energy:                                             332.630123 eV


  V1^2 = 0.8654, V2^2 = 0.1346

  Important amplitudes:
     core i     occ j      vir a      vir b          v   
    ------------------------------------------------------
     5 (A) B              34 (A) B                 0.4784
     5 (A) A              35 (A) A                 0.4727
    ------------------------------------------------------
  ----------------------------------------------------------------------------


--------------------------------------------------------------------------------
  Time of ADC calculation:  CPU 1811.70 s  wall 1850.06 s
================================================================================
 
 --------------------------------------------------------------
 
                    Orbital Energies (a.u.)
 --------------------------------------------------------------
 
 Alpha MOs
 -- Occupied --
-26.740 -26.740 -26.739 -26.608 -11.969  -2.138  -2.032  -2.030
 -1.858  -1.316  -1.213  -1.212  -1.160  -1.057  -1.056  -1.027
 -1.025  -1.024  -1.010  -0.919  -0.916
 -- Virtual --
 -0.302   0.100   0.120   0.121   0.336   0.377   0.378   0.400
  0.925   1.016   1.017   1.038   1.060   1.063   1.172   1.208
  1.236   1.287   1.288   1.314   1.318   1.320   1.411   1.479
  1.629   1.629   1.738   1.746   1.783   1.804   1.813   1.819
  1.852   1.863   1.902   1.924   1.943   1.983   1.988   2.049
  2.063   2.476   2.480   2.528   2.823   2.823   3.106   3.108
  3.131   3.583   4.229   4.412   4.414   4.709
 
 Beta MOs
 -- Occupied --
-26.740 -26.740 -26.739 -26.560 -11.969  -2.138  -2.032  -2.030
 -1.664  -1.316  -1.213  -1.212  -1.160  -1.057  -1.056  -1.026
 -1.025  -1.010  -0.865  -0.864
 -- Virtual --
 -0.302  -0.106   0.100   0.120   0.123   0.340   0.377   0.379
  0.400   0.952   1.016   1.017   1.041   1.063   1.063   1.222
  1.259   1.287   1.289   1.314   1.316   1.320   1.388   1.414
  1.489   1.630   1.630   1.746   1.747   1.783   1.814   1.819
  1.821   1.929   1.948   1.952   1.964   1.968   1.987   1.988
  2.053   2.063   2.476   2.480   2.529   2.823   2.824   3.106
  3.108   3.132   3.623   4.229   4.412   4.414   4.709
 --------------------------------------------------------------
 
          Ground-State Mulliken Net Atomic Charges

     Atom                 Charge (a.u.)    Spin (a.u.)
  --------------------------------------------------------
      1 C                     1.299961      -0.003091
      2 F                    -0.106693      -0.000217
      3 F                    -0.106833      -0.000216
      4 F                     0.022576       1.003714
      5 F                    -0.109011      -0.000190
  --------------------------------------------------------
  Sum of atomic charges =     1.000000
  Sum of spin   charges =     1.000000

 -----------------------------------------------------------------
                    Cartesian Multipole Moments
 -----------------------------------------------------------------
    Charge (ESU x 10^10)
                 4.8032
    Dipole Moment (Debye)
         X      -2.9852      Y      12.3881      Z      -0.4880
       Tot      12.7520
    Quadrupole Moments (Debye-Ang)
        XX     -18.6633     XY      -7.3705     YY      12.4894
        XZ      -0.1861     YZ      -1.7731     ZZ     -20.9452
    Octopole Moments (Debye-Ang^2)
       XXX      42.0096    XXY     -44.5260    XYY      -4.5022
       YYY     -56.8044    XXZ       1.3700    XYZ       0.4040
       YYZ      -4.8657    XZZ      13.6217    YZZ     -48.6782
       ZZZ      -0.7044
    Hexadecapole Moments (Debye-Ang^3)
      XXXX    -139.7963   XXXY      81.5112   XXYY    -160.7119
      XYYY      29.9137   YYYY    -631.0263   XXXZ       4.5541
      XXYZ       8.9604   XYYZ       4.1164   YYYZ      12.8363
      XXZZ     -36.9543   XYZZ      24.8699   YYZZ    -158.8484
      XZZZ       9.3048   YZZZ      22.3442   ZZZZ     -87.7291
 -----------------------------------------------------------------
Archival summary:
1\1\tp-linux1\SP\HF\6-31G*\41(1+,2)\thomas\WedMar2217:28:392017WedMar2217:28:392017\0\\#,HF,6-31G*,\\1,2\C\F,1,1.26292\F,1,1.26308,2,114.276\F,1,1.26558,2,113.915,3,-133.302,0\F,1,2.90936,2,102.628,3,110.57,0\\HF=-435.127357\\@

 Total job time:  1869.99s(wall), 1826.28s(cpu) 
 Wed Mar 22 17:28:39 2017

        *************************************************************
        *                                                           *
        *  Thank you very much for using Q-Chem.  Have a nice day.  *
        *                                                           *
        *************************************************************


0 sent ACK to 0 
now end server 0 ... 
cleanup process ... done
