
Running Job 1 of 1 ddtraj1t45.inp
qchem ddtraj1t45.inp_16760.0 /scratch/qchem/qchem16760/ 1
/mnt/software/qchem/bin/mpi/mpirun_qchem -machinefile /mnt/software/qchem/bin/mpi/machines -np 1 /mnt/software/qchem/exe/qcprog.exe ddtraj1t45.inp_16760.0 /scratch/qchem/qchem16760/

Process 0 of 1 is on tp-linux1 - thread support 0
initial socket setup ...start
initial socket setup ...done 
now start server 0 ... 

cmd = ssh tp-linux1 /mnt/software/qchem/bin/get_hostid 1650821811 > /scratch/qchem/qchem16760/lic.dat
                  Welcome to Q-Chem
     A Quantum Leap Into The Future Of Chemistry


 Q-Chem 4.3, Q-Chem, Inc., Pleasanton, CA (2015)

 Y. Shao,  Z. Gan,  E. Epifanovsky,  A. T. B. Gilbert,  M. Wormit,  
 J. Kussmann,  A. W. Lange,  A. Behn,  J. Deng,  X. Feng,  D. Ghosh,  
 M. Goldey,  P. R. Horn,  L. D. Jacobson,  I. Kaliman,  R. Z. Khaliullin,  
 T. Kus,  A. Landau,  J. Liu,  E. I. Proynov,  Y. M. Rhee,  R. M. Richard,  
 M. A. Rohrdanz,  R. P. Steele,  E. J. Sundstrom,  H. L. Woodcock III,  
 P. M. Zimmerman,  D. Zuev,  B. Albrecht,  E. Alguire,  B. Austin,  
 S. A. Baeppler,  G. J. O. Beran,  Y. A. Bernard,  E. Berquist,  
 K. Brandhorst,  K. B. Bravaya,  S. T. Brown,  D. Casanova,  C.-M. Chang,  
 Y. Chen,  S. H. Chien,  K. D. Closser,  D. L. Crittenden,  M. Diedenhofen,  
 R. A. DiStasio Jr.,  H. Do,  A. D. Dutoi,  R. G. Edgar,  P.-T. Fang,  
 S. Fatehi,  Q. Feng,  L. Fusti-Molnar,  A. Ghysels,  
 A. Golubeva-Zadorozhnaya,  J. Gomes,  A. Gunina,  M. W. D. Hanson-Heine,  
 P. H. P. Harbach,  A. W. Hauser,  E. G. Hohenstein,  Z. C. Holden,  K. Hui,  
 T.-C. Jagau,  H. Ji,  B. Kaduk,  K. Khistyaev,  Jaehoon Kim,  Jihan Kim,  
 R. A. King,  P. Klunzinger,  D. Kosenkov,  T. Kowalczyk,  C. M. Krauter,  
 K. U. Lao,  A. Laurent,  K. V. Lawler,  S. Lehtola,  S. V. Levchenko,  
 C. Y. Lin,  Y.-S. Lin,  F. Liu,  E. Livshits,  R. C. Lochan,  A. Luenser,  
 P. Manohar,  S. F. Manzer,  S.-P. Mao,  N. Mardirossian,  A. V. Marenich,  
 L. A. Martinez-Martinez,  S. A. Maurer,  N. J. Mayhall,  K. Nanda,  
 C. M. Oana,  R. Olivares-Amaya,  D. P. O'Neill,  J. A. Parkhill,  
 T. M. Perrine,  R. Peverati,  P. A. Pieniazek,  F. Plasser,  A. Prociuk,  
 D. R. Rehn,  E. Rosta,  N. J. Russ,  N. Sergueev,  S. M. Sharada,  
 S. Sharma,  D. W. Small,  A. Sodt,  T. Stauch,  T. Stein,  D. Stuck,  
 Y.-C. Su,  A. J. W. Thom,  T. Tsuchimochi,  L. Vogt,  O. Vydrov,  T. Wang,  
 M. A. Watson,  J. Wenzel,  A. White,  C. F. Williams,  V. Vanovschi,  
 S. Yeganeh,  S. R. Yost,  Z.-Q. You,  I. Y. Zhang,  X. Zhang,  Y. Zhao,  
 B. R. Brooks,  G. K. L. Chan,  D. M. Chipman,  C. J. Cramer,  
 W. A. Goddard III,  M. S. Gordon,  W. J. Hehre,  A. Klamt,  
 H. F. Schaefer III,  M. W. Schmidt,  C. D. Sherrill,  D. G. Truhlar,  
 A. Warshel,  X. Xu,  A. Aspuru-Guzik,  R. Baer,  A. T. Bell,  N. A. Besley,  
 J.-D. Chai,  A. Dreuw,  B. D. Dunietz,  T. R. Furlani,  S. R. Gwaltney,  
 C.-P. Hsu,  Y. Jung,  J. Kong,  D. S. Lambrecht,  W. Liang,  C. Ochsenfeld,  
 V. A. Rassolov,  L. V. Slipchenko,  J. E. Subotnik,  T. Van Voorhis,  
 J. M. Herbert,  A. I. Krylov,  P. M. W. Gill,  M. Head-Gordon

 Contributors to earlier versions of Q-Chem not listed above: 
 R. D. Adamson,  J. Baker,  E. F. C. Byrd,  A. K. Chakraborty,  C.-L. Cheng,  
 H. Dachsel,  R. J. Doerksen,  G. Hawkins,  A. Heyden,  S. Hirata,  
 G. Kedziora,  F. J. Keil,  C. Kelley,  P. P. Korambath,  W. Kurlancheek,  
 A. M. Lee,  M. S. Lee,  D. Liotard,  I. Lotan,  P. E. Maslen,  N. Nair,  
 D. Neuhauser,  R. Olson,  B. Peters,  J. Ritchie,  N. E. Schultz,  
 N. Shenvi,  A. C. Simmonett,  K. S. Thanthiriwatte,  Q. Wu,  W. Zhang

 Please cite Q-Chem as follows:
 Y. Shao et al., Mol. Phys. 113, 184-215 (2015)
 DOI: 10.1080/00268976.2014.952696

 Q-Chem 4.3.0 for Intel X86 Linux

 Parts of Q-Chem use Armadillo 5.200.1 (Boston Tea Smuggler).
 http://arma.sourceforge.net/

 Q-Chem begins on Wed Mar 22 18:39:10 2017  

Host: 
0

     Scratch files written to /scratch/qchem/qchem16760//
 Nov1815 1189b_ 19540  19532 5443   
 Parallel job on  1  processors
Processing $rem in /mnt/software/qchem/config/preferences.
 MEM_TOTAL  2000 

Checking the input file for inconsistencies... 	...done.

--------------------------------------------------------------
User input:
--------------------------------------------------------------
$comment
XAS calculation for valence excited states for CF4+ using cvs-adc(2) + 6-31G* basis set
job 1 - determination of HF orbitals
$end

$molecule
1 2
6  -0.517637  2.860088  -0.209004
9  0.683061  2.610854  -0.110557
9  -1.037647  3.548946  0.667607
9  -1.543817  0.038901  0.901354
9  -1.013717  2.877594  -1.326391
$end

$comment
cvs-adc(2) calculation
$end

$rem
mem_total 3000
mem_static 1500
sym_ignore true
method cvs-adc(2)
basis 6-31G*
ee_singlets 20
cc_rest_occ 5                  !only excitations from the lowest N orbitals
unrestricted  true
max_scf_cycles 200
SCF_ALGORITHM = DIIS_GDM
SCF_CONVERGENCE = 7
THRESH = 10
$end
--------------------------------------------------------------
 ----------------------------------------------------------------
             Standard Nuclear Orientation (Angstroms)
    I     Atom           X                Y                Z
 ----------------------------------------------------------------
    1      C      -0.5176370000     2.8600880000    -0.2090040000
    2      F       0.6830610000     2.6108540000    -0.1105570000
    3      F      -1.0376470000     3.5489460000     0.6676070000
    4      F      -1.5438170000     0.0389010000     0.9013540000
    5      F      -1.0137170000     2.8775940000    -1.3263910000
 ----------------------------------------------------------------
 Nuclear Repulsion Energy =   175.7113704468 hartrees
 There are       21 alpha and       20 beta electrons
 Requested basis set is 6-31G(d)
 There are 20 shells and 75 basis functions

 Total QAlloc Memory Limit   3000 MB
 Mega-Array Size      1467 MB
 MEM_STATIC part      1500 MB

                       Distance Matrix (Angstroms)
             C (  1)   F (  2)   F (  3)   F (  4)
   F (  2)  1.230238
   F (  3)  1.230196  2.108647
   F (  4)  3.200787  3.549351  3.554049
   F (  5)  1.222684  2.104390  2.104118  3.647195
 
 tim1(1): 
  3.999999999999997E-003
 tim1(2): 
  0.000000000000000E+000
 A cutoff of  1.0D-10 yielded    183 shell pairs
 There are      2806 function pairs
 
 -------------------------------------------------------
 OpenMP Integral Computing Module                       
 Release: version 1.0, May 2013, Q-Chem Inc. Pittsburgh 
 -------------------------------------------------------
 Integral Job Info:
 Integral job number is                      11
 Integral operator is                         1
 short-range coefficients                     0
 long-range coefficients              100000000
 Omega coefficients                           0
 if combine SR and LR in K                    0
 Integral screening is                        0
 Integral computing path is                   2
 max size of driver memory is            800000
 size of driver memory is                593474
 size of scratch memory is              2260544
 max col of scratch BK array               1296
 max len of scratch array in speh3          155
 max len of scratch index in speh4           18
 max int batch size is                      520
 min int batch size is                       52
 fixed nKL is                                52
 max L of basis functions is                  2
 order of int derivative is                   0
 number of shells is                         20
 number of basis is                          75
 number of cartesian basis is                75
 number of contracted shell pairs           183
 number of primitive shell pairs            930
 maxK2 (contraction) of shell pair           36
 max number of K2 of shell pair               1
 max number of CS2 of shell pair             32
 max number of PS2 of shell pair            192
 mem total for path MDJ                   17476
 -------------------------------------------------------
 Smallest overlap matrix eigenvalue = 3.93E-03

 Scale SEOQF with 1.000000e-01/1.000000e-01/1.000000e+00

 Standard Electronic Orientation quadrupole field applied
 Nucleus-field energy     =    -0.0000000065 hartrees
 Guess from superposition of atomic densities
 Warning:  Energy on first SCF cycle will be non-variational
 An unrestricted Hartree-Fock SCF calculation will be
 performed using Pulay DIIS + Geometric Direct Minimization
 SCF converges when RMS gradient is below 1.0E-07
 ---------------------------------------
  Cycle       Energy         DIIS Error
 ---------------------------------------
    1    -436.3338232388      9.04E-02
    2    -434.9751795496      1.78E-02
    3    -435.1290338579      8.47E-03 Done DIIS. Switching to GDM
    4    -435.1618937835      9.22E-03 Normal BFGS step
    5    -435.1629302018      9.14E-03 Normal BFGS step
    6    -435.1632992577      1.75E-03 Normal BFGS step
    7    -435.1633241532      1.74E-03 Normal BFGS step
    8    -435.1633307311      1.72E-03 Normal BFGS step
    9    -435.1633384915      1.69E-03 Normal BFGS step
   10    -435.1633556222      1.59E-03 Normal BFGS step
   11    -435.1633899180      1.82E-03 Normal BFGS step
   12    -435.1634484314      2.33E-03 Normal BFGS step
   13    -435.1635077355      1.87E-03 Normal BFGS step
   14    -435.1635367555      7.28E-04 Normal BFGS step
   15    -435.1635413856      1.80E-04 Normal BFGS step
   16    -435.1635416393      8.62E-05 Normal BFGS step
   17    -435.1635416746      1.44E-05 Normal BFGS step
   18    -435.1635416772      5.83E-06 Normal BFGS step
   19    -435.1635416773      5.83E-06 Normal BFGS step
   20    -435.1635416774      5.83E-06 Normal BFGS step
   21    -435.1635416775      5.83E-06 Normal BFGS step
   22    -435.1635416777      6.70E-06 Normal BFGS step
   23    -435.1635416782      1.15E-05 Normal BFGS step
   24    -435.1635416792      1.81E-05 Normal BFGS step
   25    -435.1635416816      2.62E-05 Normal BFGS step
   26    -435.1635416875      3.70E-05 Normal BFGS step
   27    -435.1635417024      6.30E-05 Normal BFGS step
   28    -435.1635417406      1.09E-04 Normal BFGS step
   29    -435.1635418310      1.87E-04 Normal BFGS step
   30    -435.1635419374      2.45E-04 Normal BFGS step
   31    -435.1635421943      2.02E-04 Normal BFGS step
   32    -435.1635428021      2.74E-04 Normal BFGS step
   33    -435.1635415423      1.96E-03 Line search: overstep
   34    -435.1635429145      9.05E-05 Normal BFGS step
   35    -435.1635430802      1.31E-04 Normal BFGS step
   36    -435.1635430294      1.92E-03 Line search: overstep
   37    -435.1635432843      2.50E-04 Normal BFGS step
   38    -435.1635436067      2.86E-04 Normal BFGS step
   39    -435.1635440642      1.08E-04 Normal BFGS step
   40    -435.1635435137      2.42E-03 Line search: overstep
   41    -435.1635442310      1.53E-04 Normal BFGS step
   42    -435.1635441455      1.83E-03 Line search: overstep
   43    -435.1635444049      2.55E-04 Normal BFGS step
   44    -435.1635446770      2.40E-04 Normal BFGS step
   45    -435.1635449562      1.07E-04 Normal BFGS step
   46    -435.1635450127      3.65E-04 Normal BFGS step
   47    -435.1635453187      8.46E-05 Normal BFGS step
   48    -435.1635455446      7.03E-05 Normal BFGS step
   49    -435.1635311958      8.47E-03 Line search: overstep
   50    -435.1635457039      8.98E-05 Dog-leg BFGS step
   51    -435.1635455343      2.08E-03 Line search: overstep
   52    -435.1635459439      1.97E-04 Dog-leg BFGS step
   53    -435.1635462181      1.89E-04 Dog-leg BFGS step
   54    -435.1635465941      7.54E-05 Dog-leg BFGS step
   55    -435.1635468434      1.32E-04 Dog-leg BFGS step
   56    -435.1635471697      1.05E-04 Dog-leg BFGS step
   57    -435.1635474553      1.20E-04 Dog-leg BFGS step
   58    -435.1635477976      6.01E-05 Dog-leg BFGS step
   59    -435.1635480268      1.44E-04 Dog-leg BFGS step
   60    -435.1635483205      1.30E-04 Dog-leg BFGS step
   61    -435.1635486142      8.90E-05 Dog-leg BFGS step
   62    -435.1635488445      1.18E-04 Dog-leg BFGS step
   63    -435.1635491052      4.98E-05 Dog-leg BFGS step
   64    -435.1635492767      1.09E-04 Dog-leg BFGS step
   65    -435.1635494037      1.70E-04 Dog-leg BFGS step
   66    -435.1635495912      1.09E-04 Normal BFGS step
   67    -435.1635497167      4.02E-05 Normal BFGS step
   68    -435.1635495885      1.11E-03 Line search: overstep
   69    -435.1635497485      8.51E-05 Normal BFGS step
   70    -435.1635498266      9.58E-05 Normal BFGS step
   71    -435.1635498579      4.42E-05 Normal BFGS step
   72    -435.1635498833      5.07E-05 Normal BFGS step
   73    -435.1635498931      5.52E-05 Normal BFGS step
   74    -435.1635499127      5.61E-05 Normal BFGS step
   75    -435.1635499633      5.88E-05 Normal BFGS step
   76    -435.1635500652      5.50E-05 Normal BFGS step
   77    -435.1635502105      7.95E-05 Normal BFGS step
   78    -435.1635451231      4.88E-03 Line search: overstep
   79    -435.1635502184      7.42E-05 Normal BFGS step
   80    -435.1635502899      7.80E-05 Normal BFGS step
   81    -435.1635502967      9.20E-05 Normal BFGS step
   82    -435.1635503159      1.22E-05 Normal BFGS step
   83    -435.1635503172      6.45E-06 Normal BFGS step
   84    -435.1635503177      5.30E-06 Normal BFGS step
   85    -435.1635503181      8.58E-06 Normal BFGS step
   86    -435.1635503184      9.05E-06 Normal BFGS step
   87    -435.1635503192      8.24E-06 Normal BFGS step
   88    -435.1635503204      9.57E-06 Normal BFGS step
   89    -435.1635503219      9.79E-06 Normal BFGS step
   90    -435.1635503237      8.57E-06 Normal BFGS step
   91    -435.1635503255      2.27E-06 Normal BFGS step
   92    -435.1635503256      1.13E-06 Normal BFGS step
   93    -435.1635503256      4.82E-07 Normal BFGS step
   94    -435.1635503256      1.55E-07 Normal BFGS step
   95    -435.1635503256      5.97E-08 Convergence criterion met
 ---------------------------------------
 <S^2> = 0.7528
 SCF time:  CPU 14.43 s  wall 22.99 s
 SCF   energy in the final basis set = -435.1635503256
 Total energy in the final basis set = -435.1635503256
================================================================================
|                                                                              |
|                                 A D C  M A N                                 |
|                                                                              |
 ------------------------------------------------------------------------------ 
|                                                                              |
| Components:                                                                  |
|                                                                              |
| - libvmm - 1.2-release                                                       |
|   Authors:                                                                   |
|   Evgeny Epifanovsky, Ilya Kaliman                                           |
|                                                                              |
| - libtensor - 2.4-trunk                                                      |
|   Authors:                                                                   |
|   Evgeny Epifanovsky, Michael Wormit, Dmitry Zuev, Sam Manzer                |
|                                                                              |
| - libwfa - 1.1-beta                                                          |
|   Authors:                                                                   |
|   Felix Plasser, Stefanie Baeppler, Benjamin Thomitzni, Michael Wormit       |
|                                                                              |
| - libadc - 1.0-beta                                                          |
|   Authors:                                                                   |
|   Michael Wormit, Philipp H. P. Harbach, Caroline Krauter, Dirk Rehn,        |
|   Matthias Schneider, Jan Wenzel                                             |
|                                                                              |
| - adcman - 2.4-beta                                                          |
|   Authors:                                                                   |
|   Michael Wormit, Philipp H. P. Harbach, Caroline Krauter, Dirk Rehn,        |
|   Jan Wenzel, Andreas Dreuw                                                  |
|                                                                              |
| Authors of earlier versions of ADCMAN:                                       |
| Andreas Dreuw, Jan Hendrik Starcke, Dirk Rehn, Michael Wormit                |
|                                                                              |
================================================================================

 
 Alpha MOs, Unrestricted
 -- Occupied --                  
-26.749 -26.746 -26.746 -26.580 -11.958  -2.167  -2.061  -2.057
  1 A     2 A     3 A     4 A     5 A     6 A     7 A     8 A                  
 -1.831  -1.325  -1.238  -1.237  -1.184  -1.071  -1.071  -1.043
  9 A    10 A    11 A    12 A    13 A    14 A    15 A    16 A                  
 -1.041  -1.021  -0.998  -0.892  -0.890
 17 A    18 A    19 A    20 A    21 A                                          
 -- Virtual --                   
 -0.234   0.039   0.181   0.183   0.330   0.399   0.403   0.415
 22 A    23 A    24 A    25 A    26 A    27 A    28 A    29 A                  
  0.920   1.009   1.012   1.016   1.103   1.105   1.193   1.226
 30 A    31 A    32 A    33 A    34 A    35 A    36 A    37 A                  
  1.259   1.282   1.282   1.287   1.287   1.308   1.388   1.447
 38 A    39 A    40 A    41 A    42 A    43 A    44 A    45 A                  
  1.644   1.645   1.744   1.745   1.779   1.845   1.859   1.866
 46 A    47 A    48 A    49 A    50 A    51 A    52 A    53 A                  
  1.887   1.909   1.913   1.952   1.958   1.960   1.968   1.977
 54 A    55 A    56 A    57 A    58 A    59 A    60 A    61 A                  
  2.055   2.393   2.627   2.633   2.949   2.957   3.181   3.184
 62 A    63 A    64 A    65 A    66 A    67 A    68 A    69 A                  
  3.194   3.570   4.202   4.648   4.678   4.695
 70 A    71 A    72 A    73 A    74 A    75 A                                  
 
 Beta MOs, Unrestricted
 -- Occupied --                  
-26.749 -26.746 -26.746 -26.531 -11.958  -2.167  -2.061  -2.057
  1 A     2 A     3 A     4 A     5 A     6 A     7 A     8 A                  
 -1.638  -1.325  -1.238  -1.237  -1.184  -1.071  -1.071  -1.043
  9 A    10 A    11 A    12 A    13 A    14 A    15 A    16 A                  
 -1.041  -1.021  -0.840  -0.838
 17 A    18 A    19 A    20 A                                                  
 -- Virtual --                   
 -0.234  -0.080   0.040   0.181   0.183   0.332   0.399   0.403
 21 A    22 A    23 A    24 A    25 A    26 A    27 A    28 A                  
  0.415   0.949   1.009   1.012   1.017   1.104   1.105   1.242
 29 A    30 A    31 A    32 A    33 A    34 A    35 A    36 A                  
  1.277   1.282   1.286   1.286   1.290   1.308   1.391   1.414
 37 A    38 A    39 A    40 A    41 A    42 A    43 A    44 A                  
  1.454   1.644   1.645   1.745   1.746   1.779   1.862   1.865
 45 A    46 A    47 A    48 A    49 A    50 A    51 A    52 A                  
  1.904   1.958   1.958   1.960   1.966   1.974   1.975   1.983
 53 A    54 A    55 A    56 A    57 A    58 A    59 A    60 A                  
  1.998   2.055   2.393   2.627   2.633   2.949   2.957   3.181
 61 A    62 A    63 A    64 A    65 A    66 A    67 A    68 A                  
  3.184   3.195   3.611   4.203   4.648   4.678   4.695
 69 A    70 A    71 A    72 A    73 A    74 A    75 A                          
 

--------------------------------------------------------------------------------
                                   HF Summary                                   
--------------------------------------------------------------------------------
  Energy:                                                 -435.1635503256 a.u.
  Dip. moment [a.u.]:                  [ -54.353697,  181.547892,    0.224202]
  Total dipole [Debye]:                                             481.686275
  <r^2> [a.u.]:                        [ 179.041593, 1052.466012,  113.674063]
  Total <r^2> [a.u.]:                                              1345.181669
--------------------------------------------------------------------------------

--------------------------------------------------------------------------------
                                 MP(2) Summary                                  
--------------------------------------------------------------------------------
  Energy contribution:                                      -0.7437163001 a.u.
  Total energy:                                           -435.9072666257 a.u.
  Dip. moment [a.u.]:                  [ -54.390136,  181.457791,    0.252220]
  Total dipole [Debye]:                                             481.493560
  <r^2> [a.u.]:                        [ 178.852312, 1051.584067,  113.375335]
  Total <r^2> [a.u.]:                                              1343.811714
--------------------------------------------------------------------------------
  Starting Davidson ... 
--------------------------------------------------------------------------------
   It NVec Conv  Avg. Norm  Max. Norm  Conv. states           Remark
--------------------------------------------------------------------------------
        20    0  2.078e-01  1.139e+00 10.9591 n n n n n n n n Guess.
    1   40    0  6.353e-02  8.757e-01 10.7987 n n n n n n n n 
    2   60    0  1.489e-02  2.399e-01 10.7973 n n n n n n n n 
    3   80    0  4.467e-03  7.531e-02 10.7973 n n n n n n n n 
    4  100    0  1.694e-03  2.820e-02 10.7973 n n n n n n n n 
    5   40    0  1.233e-03  1.883e-02 10.7973 n n n n n n n n Subspace collapsed.
    6   60    0  2.108e-03  3.829e-02 10.7973 n n n n n n n n 
    7   80    0  1.740e-03  3.213e-02 10.7973 n n n n n n n n 
    8  100    3  1.603e-03  2.989e-02 10.7973 y y n n n n y n 
    9   40    7  7.158e-04  1.345e-02 10.7973 y y n y n y y y Subspace collapsed.
   10   60    8  4.952e-04  8.414e-03 10.7973 y y n y y y y y 
   11   80    9  5.594e-04  1.059e-02 10.7973 y y y y y y y y 
   12  100   15  6.393e-04  1.243e-02 10.7973 y y y y y y y y 
   13   40   17  4.493e-04  8.774e-03 10.7973 y y y y y y y y Subspace collapsed.
   14   60   17  3.978e-04  7.517e-03 10.7973 y y y y y y y y 
   15   80   17  5.154e-04  1.010e-02 10.7973 y y y y y y y y 
   16  100   17  6.154e-04  1.212e-02 10.7973 y y y y y y y y 
   17   38   17  4.415e-04  8.762e-03 10.7973 y y y y y y y y Subspace collapsed.
   18   56   17  3.312e-04  6.507e-03 10.7973 y y y y y y y y 
   19   58   17  3.310e-04  6.507e-03 10.7973 y y y y y y y y 
   20   59   17  3.310e-04  6.508e-03 10.7973 y y y y y y y y 
   21   60   17  3.309e-04  6.505e-03 10.7973 y y y y y y y y 
   22   62   17  3.346e-04  6.581e-03 10.7973 y y y y y y y y 
   23   74   17  4.202e-04  8.361e-03 10.7973 y y y y y y y y 
   24   85   17  4.317e-04  8.599e-03 10.7973 y y y y y y y y 
   25   96   17  7.200e-04  1.437e-02 10.7973 y y y y y y y y 
   26  100   17  7.177e-04  1.432e-02 10.7973 y y y y y y y y 
   27   31   17  3.716e-04  7.416e-03 10.7973 y y y y y y y y Subspace collapsed.
   28   42   17  3.526e-04  7.037e-03 10.7973 y y y y y y y y 
   29   53   17  3.096e-04  6.176e-03 10.7973 y y y y y y y y 
   30   54   17  3.093e-04  6.170e-03 10.7973 y y y y y y y y 
   31   64   17  3.729e-04  7.448e-03 10.7973 y y y y y y y y 
   32   65   17  3.713e-04  7.417e-03 10.7973 y y y y y y y y 
   33   67   17  3.701e-04  7.392e-03 10.7973 y y y y y y y y 
   34   68   17  3.700e-04  7.391e-03 10.7973 y y y y y y y y 
   35   68   17  3.700e-04  7.391e-03 10.7973 y y y y y y y y 
   36   79   17  3.968e-04  7.927e-03 10.7973 y y y y y y y y 
   37   79   17  3.968e-04  7.927e-03 10.7973 y y y y y y y y 
   38   79   17  3.968e-04  7.927e-03 10.7973 y y y y y y y y 
   39   99   17  4.287e-04  8.567e-03 10.7973 y y y y y y y y 
   40  100   17  4.282e-04  8.556e-03 10.7973 y y y y y y y y 
   41   20   17  4.282e-04  8.556e-03 10.7973 y y y y y y y y Subspace collapsed.
   42   20   17  4.282e-04  8.556e-03 10.7973 y y y y y y y y 
   43   20   17  4.282e-04  8.556e-03 10.7973 y y y y y y y y 
   44   40   17  2.439e-04  4.873e-03 10.7973 y y y y y y y y 
   45   43   17  2.273e-04  4.537e-03 10.7973 y y y y y y y y 
   46   46   17  2.738e-04  5.472e-03 10.7973 y y y y y y y y 
   47   49   17  2.621e-04  5.240e-03 10.7973 y y y y y y y y 
   48   52   17  4.756e-04  9.511e-03 10.7973 y y y y y y y y 
   49   55   17  4.209e-04  8.417e-03 10.7973 y y y y y y y y 
   50   58   17  2.572e-04  5.142e-03 10.7973 y y y y y y y y 
   51   61   17  2.152e-04  4.303e-03 10.7973 y y y y y y y y 
   52   64   17  2.614e-04  5.227e-03 10.7973 y y y y y y y y 
   53   67   17  2.777e-04  5.553e-03 10.7973 y y y y y y y y 
   54   70   17  1.830e-04  3.659e-03 10.7973 y y y y y y y y 
   55   73   17  9.519e-05  1.904e-03 10.7973 y y y y y y y y 
   56   76   17  4.545e-05  9.088e-04 10.7973 y y y y y y y y 
   57   79   17  2.519e-05  5.036e-04 10.7973 y y y y y y y y 
   58   82   17  1.202e-05  2.403e-04 10.7973 y y y y y y y y 
   59   85   17  5.278e-06  1.055e-04 10.7973 y y y y y y y y 
--------------------------------------------------------------------------------
  Davidson Summary: 
 ------------------------------------------------------------
  State  0: excitation energy =  10.7973 a.u.   (converged)
  State  1: excitation energy =  10.8675 a.u.   (converged)
  State  2: excitation energy =  11.1558 a.u.   (converged)
  State  3: excitation energy =  11.2131 a.u.   (converged)
  State  4: excitation energy =  11.2177 a.u.   (converged)
  State  5: excitation energy =  11.2190 a.u.   (converged)
  State  6: excitation energy =  11.2778 a.u.   (converged)
  State  7: excitation energy =  11.2919 a.u.   (converged)
  State  8: excitation energy =  11.2972 a.u.   (converged)
  State  9: excitation energy =  11.5260 a.u.   (converged)
  State 10: excitation energy =  11.5462 a.u.   (converged)
  State 11: excitation energy =  11.5605 a.u.   (converged)
  State 12: excitation energy =  11.5747 a.u.   (converged)
  State 13: excitation energy =  11.5756 a.u.   (converged)
  State 14: excitation energy =  11.5900 a.u.   (converged)
  State 15: excitation energy =  11.5914 a.u.   (converged)
  State 16: excitation energy =  11.5963 a.u.   (converged)
  State 17: excitation energy =  12.2274 a.u.   (not converged)
  State 18: excitation energy =  12.2300 a.u.   (not converged)
  State 19: excitation energy =  12.2333 a.u.   (not converged)
 ------------------------------------------------------------


--------------------------------------------------------------------------------
                             Excited State Summary
--------------------------------------------------------------------------------

  Excited state  1 (A)                                             [converged]
  ----------------------------------------------------------------------------
  Term symbol:  2 (-) A                                     R^2 =  1.59044e-14

  Total energy:                                           -425.1099914123 a.u.
  Excitation energy:                                             293.808801 eV

  Osc. strength:                                                      0.000000
  Trans. dip. moment [a.u.]:           [   0.000010,    0.000025,   -0.000008]
  <i|r^2|0> [a.u.]:                    [  -0.000021,    0.000265,    0.000005]

  V1^2 = 0.9572, V2^2 = 0.0428

  Important amplitudes:
     core i     occ j      vir a      vir b          v   
    ------------------------------------------------------
     5 (A) A              22 (A) A                 0.6516
     5 (A) B              21 (A) B                -0.6513
    ------------------------------------------------------
  ----------------------------------------------------------------------------


  Excited state  2 (A)                                             [converged]
  ----------------------------------------------------------------------------
  Term symbol:  3 (-) A                                     R^2 =  1.82398e-14

  Total energy:                                           -425.0397664180 a.u.
  Excitation energy:                                             295.719720 eV

  Osc. strength:                                                      0.100915
  Trans. dip. moment [a.u.]:           [  -0.041407,   -0.104876,    0.034862]
  <i|r^2|0> [a.u.]:                    [   0.086959,   -1.124751,   -0.021733]

  V1^2 = 0.9523, V2^2 = 0.0477

  Important amplitudes:
     core i     occ j      vir a      vir b          v   
    ------------------------------------------------------
     5 (A) B              21 (A) B                -0.6633
     5 (A) A              22 (A) A                -0.6628
    ------------------------------------------------------
  ----------------------------------------------------------------------------


  Excited state  3 (A)                                             [converged]
  ----------------------------------------------------------------------------
  Term symbol:  4 (-) A                                     R^2 =  9.12462e-14

  Total energy:                                           -424.7514254608 a.u.
  Excitation energy:                                             303.565877 eV

  Osc. strength:                                                      0.000000
  Trans. dip. moment [a.u.]:           [   0.000020,    0.000049,   -0.000015]
  <i|r^2|0> [a.u.]:                    [  -0.000035,    0.000541,    0.000016]

  V1^2 = 0.9289, V2^2 = 0.0711

  Important amplitudes:
     core i     occ j      vir a      vir b          v   
    ------------------------------------------------------
     5 (A) A              23 (A) A                 0.6054
     5 (A) B              23 (A) B                -0.6047
    ------------------------------------------------------
  ----------------------------------------------------------------------------


  Excited state  4 (A)                                             [converged]
  ----------------------------------------------------------------------------
  Term symbol:  5 (-) A                                     R^2 =  3.79290e-14

  Total energy:                                           -424.6941576262 a.u.
  Excitation energy:                                             305.124214 eV

  Osc. strength:                                                      0.000000
  Trans. dip. moment [a.u.]:           [  -0.000035,    0.000019,    0.000016]
  <i|r^2|0> [a.u.]:                    [   0.000073,    0.000202,   -0.000014]

  V1^2 = 0.9524, V2^2 = 0.0476

  Important amplitudes:
     core i     occ j      vir a      vir b          v   
    ------------------------------------------------------
     5 (A) B              24 (A) B                -0.4954
     5 (A) A              24 (A) A                 0.4946
    ------------------------------------------------------
  ----------------------------------------------------------------------------


  Excited state  5 (A)                                             [converged]
  ----------------------------------------------------------------------------
  Term symbol:  6 (-) A                                     R^2 =  6.46122e-14

  Total energy:                                           -424.6895965405 a.u.
  Excitation energy:                                             305.248327 eV

  Osc. strength:                                                      0.012852
  Trans. dip. moment [a.u.]:           [  -0.016785,   -0.037085,    0.007848]
  <i|r^2|0> [a.u.]:                    [   0.017268,   -0.426294,   -0.021493]

  V1^2 = 0.9175, V2^2 = 0.0825

  Important amplitudes:
     core i     occ j      vir a      vir b          v   
    ------------------------------------------------------
     5 (A) B              23 (A) B                -0.6396
     5 (A) A              23 (A) A                -0.6390
    ------------------------------------------------------
  ----------------------------------------------------------------------------


  Excited state  6 (A)                                             [converged]
  ----------------------------------------------------------------------------
  Term symbol:  7 (-) A                                     R^2 =  2.18380e-14

  Total energy:                                           -424.6882493835 a.u.
  Excitation energy:                                             305.284985 eV

  Osc. strength:                                                      0.000000
  Trans. dip. moment [a.u.]:           [  -0.000012,   -0.000035,    0.000014]
  <i|r^2|0> [a.u.]:                    [   0.000007,   -0.000400,   -0.000026]

  V1^2 = 0.9522, V2^2 = 0.0478

  Important amplitudes:
     core i     occ j      vir a      vir b          v   
    ------------------------------------------------------
     5 (A) A              25 (A) A                -0.4904
     5 (A) B              25 (A) B                 0.4903
    ------------------------------------------------------
  ----------------------------------------------------------------------------


  Excited state  7 (A)                                             [converged]
  ----------------------------------------------------------------------------
  Term symbol:  8 (-) A                                     R^2 =  1.96851e-14

  Total energy:                                           -424.6295094056 a.u.
  Excitation energy:                                             306.883381 eV

  Osc. strength:                                                      0.001956
  Trans. dip. moment [a.u.]:           [  -0.013224,    0.007171,    0.005819]
  <i|r^2|0> [a.u.]:                    [   0.026831,    0.077111,   -0.005140]

  V1^2 = 0.8536, V2^2 = 0.1464

  Important amplitudes:
     core i     occ j      vir a      vir b          v   
    ------------------------------------------------------
     5 (A) B              22 (A) B                -0.9140
     5 (A) A              24 (A) A                -0.0828
    ------------------------------------------------------
  ----------------------------------------------------------------------------


  Excited state  8 (A)                                             [converged]
  ----------------------------------------------------------------------------
  Term symbol:  9 (-) A                                     R^2 =  2.07242e-14

  Total energy:                                           -424.6153759652 a.u.
  Excitation energy:                                             307.267972 eV

  Osc. strength:                                                      0.116233
  Trans. dip. moment [a.u.]:           [   0.100908,   -0.055409,   -0.046770]
  <i|r^2|0> [a.u.]:                    [  -0.204319,   -0.596250,    0.041123]

  V1^2 = 0.9417, V2^2 = 0.0583

  Important amplitudes:
     core i     occ j      vir a      vir b          v   
    ------------------------------------------------------
     5 (A) B              24 (A) B                 0.5389
     5 (A) A              24 (A) A                 0.5346
    ------------------------------------------------------
  ----------------------------------------------------------------------------


  Excited state  9 (A)                                             [converged]
  ----------------------------------------------------------------------------
  Term symbol:  10 (-) A                                    R^2 =  6.01247e-14

  Total energy:                                           -424.6100829336 a.u.
  Excitation energy:                                             307.412002 eV

  Osc. strength:                                                      0.117140
  Trans. dip. moment [a.u.]:           [   0.057573,    0.012072,    0.109969]
  <i|r^2|0> [a.u.]:                    [  -0.117234,    0.127901,   -0.080972]

  V1^2 = 0.9430, V2^2 = 0.0570

  Important amplitudes:
     core i     occ j      vir a      vir b          v   
    ------------------------------------------------------
     5 (A) A              25 (A) A                 0.5381
     5 (A) B              25 (A) B                 0.5380
    ------------------------------------------------------
  ----------------------------------------------------------------------------


  Excited state 10 (A)                                             [converged]
  ----------------------------------------------------------------------------
  Term symbol:  11 (-) A                                    R^2 =  5.34152e-14

  Total energy:                                           -424.3813066272 a.u.
  Excitation energy:                                             313.637322 eV

  Osc. strength:                                                      0.000013
  Trans. dip. moment [a.u.]:           [   0.000429,    0.001135,   -0.000415]
  <i|r^2|0> [a.u.]:                    [  -0.001043,    0.012054,    0.000125]

  V1^2 = 0.9160, V2^2 = 0.0840

  Important amplitudes:
     core i     occ j      vir a      vir b          v   
    ------------------------------------------------------
     5 (A) A              26 (A) A                -0.5471
     5 (A) B              26 (A) B                 0.5203
    ------------------------------------------------------
  ----------------------------------------------------------------------------


  Excited state 11 (A)                                             [converged]
  ----------------------------------------------------------------------------
  Term symbol:  12 (-) A                                    R^2 =  3.32720e-14

  Total energy:                                           -424.3610215583 a.u.
  Excitation energy:                                             314.189307 eV

  Osc. strength:                                                      0.000005
  Trans. dip. moment [a.u.]:           [  -0.000277,   -0.000714,    0.000248]
  <i|r^2|0> [a.u.]:                    [   0.000643,   -0.007613,   -0.000096]

  V1^2 = 0.9034, V2^2 = 0.0966

  Important amplitudes:
     core i     occ j      vir a      vir b          v   
    ------------------------------------------------------
     5 (A) A              29 (A) A                -0.4830
     5 (A) B              29 (A) B                 0.4827
    ------------------------------------------------------
  ----------------------------------------------------------------------------


  Excited state 12 (A)                                             [converged]
  ----------------------------------------------------------------------------
  Term symbol:  13 (-) A                                    R^2 =  4.83971e-14

  Total energy:                                           -424.3468040628 a.u.
  Excitation energy:                                             314.576185 eV

  Osc. strength:                                                      0.040678
  Trans. dip. moment [a.u.]:           [  -0.025872,   -0.064628,    0.020782]
  <i|r^2|0> [a.u.]:                    [   0.056278,   -0.692891,   -0.010835]

  V1^2 = 0.9086, V2^2 = 0.0914

  Important amplitudes:
     core i     occ j      vir a      vir b          v   
    ------------------------------------------------------
     5 (A) B              26 (A) B                 0.6685
     5 (A) A              26 (A) A                 0.6400
    ------------------------------------------------------
  ----------------------------------------------------------------------------


  Excited state 13 (A)                                             [converged]
  ----------------------------------------------------------------------------
  Term symbol:  14 (-) A                                    R^2 =  1.27775e-13

  Total energy:                                           -424.3325361588 a.u.
  Excitation energy:                                             314.964434 eV

  Osc. strength:                                                      0.000012
  Trans. dip. moment [a.u.]:           [   0.001020,   -0.000540,   -0.000441]
  <i|r^2|0> [a.u.]:                    [  -0.002021,   -0.005842,    0.000376]

  V1^2 = 0.8954, V2^2 = 0.1046

  Important amplitudes:
     core i     occ j      vir a      vir b          v   
    ------------------------------------------------------
     5 (A) A              27 (A) A                 0.4978
     5 (A) B              27 (A) B                -0.4781
    ------------------------------------------------------
  ----------------------------------------------------------------------------


  Excited state 14 (A)                                             [converged]
  ----------------------------------------------------------------------------
  Term symbol:  15 (-) A                                    R^2 =  2.05149e-13

  Total energy:                                           -424.3316449659 a.u.
  Excitation energy:                                             314.988685 eV

  Osc. strength:                                                      0.000001
  Trans. dip. moment [a.u.]:           [   0.000137,    0.000261,   -0.000078]
  <i|r^2|0> [a.u.]:                    [  -0.000260,    0.002833,    0.000071]

  V1^2 = 0.8956, V2^2 = 0.1044

  Important amplitudes:
     core i     occ j      vir a      vir b          v   
    ------------------------------------------------------
     5 (A) A              28 (A) A                 0.4727
     5 (A) B              28 (A) B                -0.4725
    ------------------------------------------------------
  ----------------------------------------------------------------------------


  Excited state 15 (A)                                             [converged]
  ----------------------------------------------------------------------------
  Term symbol:  16 (-) A                                    R^2 =  2.26967e-13

  Total energy:                                           -424.3172197420 a.u.
  Excitation energy:                                             315.381215 eV

  Osc. strength:                                                      0.030410
  Trans. dip. moment [a.u.]:           [   0.051253,   -0.027914,   -0.023012]
  <i|r^2|0> [a.u.]:                    [  -0.101458,   -0.301789,    0.019431]

  V1^2 = 0.8988, V2^2 = 0.1012

  Important amplitudes:
     core i     occ j      vir a      vir b          v   
    ------------------------------------------------------
     5 (A) B              27 (A) B                 0.5465
     5 (A) A              27 (A) A                 0.5273
    ------------------------------------------------------
  ----------------------------------------------------------------------------


  Excited state 16 (A)                                             [converged]
  ----------------------------------------------------------------------------
  Term symbol:  17 (-) A                                    R^2 =  3.00392e-13

  Total energy:                                           -424.3159015416 a.u.
  Excitation energy:                                             315.417085 eV

  Osc. strength:                                                      0.031362
  Trans. dip. moment [a.u.]:           [  -0.028847,   -0.006470,   -0.056431]
  <i|r^2|0> [a.u.]:                    [   0.057481,   -0.069256,    0.043747]

  V1^2 = 0.8991, V2^2 = 0.1009

  Important amplitudes:
     core i     occ j      vir a      vir b          v   
    ------------------------------------------------------
     5 (A) B              28 (A) B                -0.5187
     5 (A) A              28 (A) A                -0.5175
    ------------------------------------------------------
  ----------------------------------------------------------------------------


  Excited state 17 (A)                                             [converged]
  ----------------------------------------------------------------------------
  Term symbol:  18 (-) A                                    R^2 =  6.91190e-13

  Total energy:                                           -424.3110107812 a.u.
  Excitation energy:                                             315.550170 eV

  Osc. strength:                                                      0.000679
  Trans. dip. moment [a.u.]:           [  -0.003114,   -0.008297,    0.003057]
  <i|r^2|0> [a.u.]:                    [  -0.018734,   -0.115414,   -0.027004]

  V1^2 = 0.9130, V2^2 = 0.0870

  Important amplitudes:
     core i     occ j      vir a      vir b          v   
    ------------------------------------------------------
     5 (A) B              29 (A) B                -0.6317
     5 (A) A              29 (A) A                -0.6294
    ------------------------------------------------------
  ----------------------------------------------------------------------------


  Excited state 18 (A)                                         [not converged]
  ----------------------------------------------------------------------------
  Term symbol:  19 (-) A                                    R^2 =  1.72733e-06

  Total energy:                                           -423.6799052955 a.u.
  Excitation energy:                                             332.723423 eV


  V1^2 = 0.8686, V2^2 = 0.1314

  Important amplitudes:
     core i     occ j      vir a      vir b          v   
    ------------------------------------------------------
     5 (A) B              31 (A) B                -0.6258
     5 (A) A              31 (A) A                 0.6229
    ------------------------------------------------------
  ----------------------------------------------------------------------------


  Excited state 19 (A)                                         [not converged]
  ----------------------------------------------------------------------------
  Term symbol:  20 (-) A                                    R^2 =  1.05476e-04

  Total energy:                                           -423.6772730206 a.u.
  Excitation energy:                                             332.795051 eV


  V1^2 = 0.8684, V2^2 = 0.1316

  Important amplitudes:
     core i     occ j      vir a      vir b          v   
    ------------------------------------------------------
     5 (A) A              32 (A) A                -0.6301
     5 (A) B              32 (A) B                 0.6291
    ------------------------------------------------------
  ----------------------------------------------------------------------------


  Excited state 20 (A)                                         [not converged]
  ----------------------------------------------------------------------------
  Term symbol:  21 (-) A                                    R^2 =  3.73930e-06

  Total energy:                                           -423.6739314667 a.u.
  Excitation energy:                                             332.885979 eV


  V1^2 = 0.8677, V2^2 = 0.1323

  Important amplitudes:
     core i     occ j      vir a      vir b          v   
    ------------------------------------------------------
     5 (A) B              31 (A) B                 0.6226
     5 (A) A              31 (A) A                 0.6191
    ------------------------------------------------------
  ----------------------------------------------------------------------------


--------------------------------------------------------------------------------
  Time of ADC calculation:  CPU 1179.25 s  wall 1212.95 s
================================================================================
 
 --------------------------------------------------------------
 
                    Orbital Energies (a.u.)
 --------------------------------------------------------------
 
 Alpha MOs
 -- Occupied --
-26.749 -26.746 -26.746 -26.580 -11.958  -2.167  -2.061  -2.057
 -1.831  -1.325  -1.238  -1.237  -1.184  -1.071  -1.071  -1.043
 -1.041  -1.021  -0.998  -0.892  -0.890
 -- Virtual --
 -0.234   0.039   0.181   0.183   0.330   0.399   0.403   0.415
  0.920   1.009   1.012   1.016   1.103   1.105   1.193   1.226
  1.259   1.282   1.282   1.287   1.287   1.308   1.388   1.447
  1.644   1.645   1.744   1.745   1.779   1.845   1.859   1.866
  1.887   1.909   1.913   1.952   1.958   1.960   1.968   1.977
  2.055   2.393   2.627   2.633   2.949   2.957   3.181   3.184
  3.194   3.570   4.202   4.648   4.678   4.695
 
 Beta MOs
 -- Occupied --
-26.749 -26.746 -26.746 -26.531 -11.958  -2.167  -2.061  -2.057
 -1.638  -1.325  -1.238  -1.237  -1.184  -1.071  -1.071  -1.043
 -1.041  -1.021  -0.840  -0.838
 -- Virtual --
 -0.234  -0.080   0.040   0.181   0.183   0.332   0.399   0.403
  0.415   0.949   1.009   1.012   1.017   1.104   1.105   1.242
  1.277   1.282   1.286   1.286   1.290   1.308   1.391   1.414
  1.454   1.644   1.645   1.745   1.746   1.779   1.862   1.865
  1.904   1.958   1.958   1.960   1.966   1.974   1.975   1.983
  1.998   2.055   2.393   2.627   2.633   2.949   2.957   3.181
  3.184   3.195   3.611   4.203   4.648   4.678   4.695
 --------------------------------------------------------------
 
          Ground-State Mulliken Net Atomic Charges

     Atom                 Charge (a.u.)    Spin (a.u.)
  --------------------------------------------------------
      1 C                     1.251369      -0.001431
      2 F                    -0.090197      -0.000007
      3 F                    -0.090141      -0.000007
      4 F                     0.009956       1.001449
      5 F                    -0.080986      -0.000004
  --------------------------------------------------------
  Sum of atomic charges =     1.000000
  Sum of spin   charges =     1.000000

 -----------------------------------------------------------------
                    Cartesian Multipole Moments
 -----------------------------------------------------------------
    Charge (ESU x 10^10)
                 4.8032
    Dipole Moment (Debye)
         X      -2.6522      Y      13.3345      Z      -0.8864
       Tot      13.6246
    Quadrupole Moments (Debye-Ang)
        XX     -18.9274     XY      -7.1968     YY      17.3052
        XZ       0.0761     YZ      -2.8093     ZZ     -20.6673
    Octopole Moments (Debye-Ang^2)
       XXX      41.9231    XXY     -44.7313    XYY      -5.1815
       YYY     -37.4263    XXZ       1.2049    XYZ       0.8716
       YYZ      -8.1474    XZZ      13.3597    YZZ     -47.9048
       ZZZ      -0.7497
    Hexadecapole Moments (Debye-Ang^3)
      XXXX    -140.6836   XXXY      77.2264   XXYY    -164.3158
      XYYY      21.5902   YYYY    -579.0018   XXXZ       6.1204
      XXYZ      10.0957   XYYZ       5.9247   YYYZ       5.9759
      XXZZ     -36.9994   XYZZ      23.0296   YYZZ    -160.5450
      XZZZ      10.7502   YZZZ      26.6087   ZZZZ     -89.4994
 -----------------------------------------------------------------
Archival summary:
1\1\tp-linux1\SP\HF\6-31G*\41(1+,2)\thomas\WedMar2218:59:482017WedMar2218:59:482017\0\\#,HF,6-31G*,\\1,2\C\F,1,1.22268\F,1,1.2302,2,118.144\F,1,1.23024,2,118.166,3,152.837,0\F,1,3.20079,2,101.512,3,-103.723,0\\HF=-435.16355\\@

 Total job time:  1237.98s(wall), 1195.48s(cpu) 
 Wed Mar 22 18:59:48 2017

        *************************************************************
        *                                                           *
        *  Thank you very much for using Q-Chem.  Have a nice day.  *
        *                                                           *
        *************************************************************


0 sent ACK to 0 
now end server 0 ... 
cleanup process ... done
