
Running Job 1 of 1 ddtraj1t2.inp
qchem ddtraj1t2.inp_21180.0 /scratch/qchem/qchem21180/ 1
/mnt/software/qchem/bin/mpi/mpirun_qchem -machinefile /mnt/software/qchem/bin/mpi/machines -np 1 /mnt/software/qchem/exe/qcprog.exe ddtraj1t2.inp_21180.0 /scratch/qchem/qchem21180/

Process 0 of 1 is on tp-linux1 - thread support 0
initial socket setup ...start
initial socket setup ...done 
now start server 0 ... 

cmd = ssh tp-linux1 /mnt/software/qchem/bin/get_hostid 1071194608 > /scratch/qchem/qchem21180/lic.dat
                  Welcome to Q-Chem
     A Quantum Leap Into The Future Of Chemistry


 Q-Chem 4.3, Q-Chem, Inc., Pleasanton, CA (2015)

 Y. Shao,  Z. Gan,  E. Epifanovsky,  A. T. B. Gilbert,  M. Wormit,  
 J. Kussmann,  A. W. Lange,  A. Behn,  J. Deng,  X. Feng,  D. Ghosh,  
 M. Goldey,  P. R. Horn,  L. D. Jacobson,  I. Kaliman,  R. Z. Khaliullin,  
 T. Kus,  A. Landau,  J. Liu,  E. I. Proynov,  Y. M. Rhee,  R. M. Richard,  
 M. A. Rohrdanz,  R. P. Steele,  E. J. Sundstrom,  H. L. Woodcock III,  
 P. M. Zimmerman,  D. Zuev,  B. Albrecht,  E. Alguire,  B. Austin,  
 S. A. Baeppler,  G. J. O. Beran,  Y. A. Bernard,  E. Berquist,  
 K. Brandhorst,  K. B. Bravaya,  S. T. Brown,  D. Casanova,  C.-M. Chang,  
 Y. Chen,  S. H. Chien,  K. D. Closser,  D. L. Crittenden,  M. Diedenhofen,  
 R. A. DiStasio Jr.,  H. Do,  A. D. Dutoi,  R. G. Edgar,  P.-T. Fang,  
 S. Fatehi,  Q. Feng,  L. Fusti-Molnar,  A. Ghysels,  
 A. Golubeva-Zadorozhnaya,  J. Gomes,  A. Gunina,  M. W. D. Hanson-Heine,  
 P. H. P. Harbach,  A. W. Hauser,  E. G. Hohenstein,  Z. C. Holden,  K. Hui,  
 T.-C. Jagau,  H. Ji,  B. Kaduk,  K. Khistyaev,  Jaehoon Kim,  Jihan Kim,  
 R. A. King,  P. Klunzinger,  D. Kosenkov,  T. Kowalczyk,  C. M. Krauter,  
 K. U. Lao,  A. Laurent,  K. V. Lawler,  S. Lehtola,  S. V. Levchenko,  
 C. Y. Lin,  Y.-S. Lin,  F. Liu,  E. Livshits,  R. C. Lochan,  A. Luenser,  
 P. Manohar,  S. F. Manzer,  S.-P. Mao,  N. Mardirossian,  A. V. Marenich,  
 L. A. Martinez-Martinez,  S. A. Maurer,  N. J. Mayhall,  K. Nanda,  
 C. M. Oana,  R. Olivares-Amaya,  D. P. O'Neill,  J. A. Parkhill,  
 T. M. Perrine,  R. Peverati,  P. A. Pieniazek,  F. Plasser,  A. Prociuk,  
 D. R. Rehn,  E. Rosta,  N. J. Russ,  N. Sergueev,  S. M. Sharada,  
 S. Sharma,  D. W. Small,  A. Sodt,  T. Stauch,  T. Stein,  D. Stuck,  
 Y.-C. Su,  A. J. W. Thom,  T. Tsuchimochi,  L. Vogt,  O. Vydrov,  T. Wang,  
 M. A. Watson,  J. Wenzel,  A. White,  C. F. Williams,  V. Vanovschi,  
 S. Yeganeh,  S. R. Yost,  Z.-Q. You,  I. Y. Zhang,  X. Zhang,  Y. Zhao,  
 B. R. Brooks,  G. K. L. Chan,  D. M. Chipman,  C. J. Cramer,  
 W. A. Goddard III,  M. S. Gordon,  W. J. Hehre,  A. Klamt,  
 H. F. Schaefer III,  M. W. Schmidt,  C. D. Sherrill,  D. G. Truhlar,  
 A. Warshel,  X. Xu,  A. Aspuru-Guzik,  R. Baer,  A. T. Bell,  N. A. Besley,  
 J.-D. Chai,  A. Dreuw,  B. D. Dunietz,  T. R. Furlani,  S. R. Gwaltney,  
 C.-P. Hsu,  Y. Jung,  J. Kong,  D. S. Lambrecht,  W. Liang,  C. Ochsenfeld,  
 V. A. Rassolov,  L. V. Slipchenko,  J. E. Subotnik,  T. Van Voorhis,  
 J. M. Herbert,  A. I. Krylov,  P. M. W. Gill,  M. Head-Gordon

 Contributors to earlier versions of Q-Chem not listed above: 
 R. D. Adamson,  J. Baker,  E. F. C. Byrd,  A. K. Chakraborty,  C.-L. Cheng,  
 H. Dachsel,  R. J. Doerksen,  G. Hawkins,  A. Heyden,  S. Hirata,  
 G. Kedziora,  F. J. Keil,  C. Kelley,  P. P. Korambath,  W. Kurlancheek,  
 A. M. Lee,  M. S. Lee,  D. Liotard,  I. Lotan,  P. E. Maslen,  N. Nair,  
 D. Neuhauser,  R. Olson,  B. Peters,  J. Ritchie,  N. E. Schultz,  
 N. Shenvi,  A. C. Simmonett,  K. S. Thanthiriwatte,  Q. Wu,  W. Zhang

 Please cite Q-Chem as follows:
 Y. Shao et al., Mol. Phys. 113, 184-215 (2015)
 DOI: 10.1080/00268976.2014.952696

 Q-Chem 4.3.0 for Intel X86 Linux

 Parts of Q-Chem use Armadillo 5.200.1 (Boston Tea Smuggler).
 http://arma.sourceforge.net/

 Q-Chem begins on Wed Mar 22 11:32:00 2017  

Host: 
0

     Scratch files written to /scratch/qchem/qchem21180//
 Nov1815 1189b_ 19540  19532 5443   
 Parallel job on  1  processors
Processing $rem in /mnt/software/qchem/config/preferences.
 MEM_TOTAL  2000 

Checking the input file for inconsistencies... 	...done.

--------------------------------------------------------------
User input:
--------------------------------------------------------------
$comment
XAS calculation for valence excited states for CF4+ using cvs-adc(2) + 6-31G* basis set
job 1 - determination of HF orbitals
$end

$molecule
1 2
6  -0.692719  2.36853  -0.007923
9  0.600487  2.348008  0.000554
9  -1.133467  3.290065  0.785343
9  -1.135401  1.191545  0.426652
9  -1.133152  2.557161  -1.207545
$end

$comment
cvs-adc(2) calculation
$end

$rem
mem_total 3000
mem_static 1500
sym_ignore true
method cvs-adc(2)
basis 6-31G*
ee_singlets 20
cc_rest_occ 5                  !only excitations from the lowest N orbitals
unrestricted  true
max_scf_cycles 200
SCF_ALGORITHM = DIIS_GDM
SCF_CONVERGENCE = 7
THRESH = 10
$end
--------------------------------------------------------------
 ----------------------------------------------------------------
             Standard Nuclear Orientation (Angstroms)
    I     Atom           X                Y                Z
 ----------------------------------------------------------------
    1      C      -0.6927190000     2.3685300000    -0.0079230000
    2      F       0.6004870000     2.3480080000     0.0005540000
    3      F      -1.1334670000     3.2900650000     0.7853430000
    4      F      -1.1354010000     1.1915450000     0.4266520000
    5      F      -1.1331520000     2.5571610000    -1.2075450000
 ----------------------------------------------------------------
 Nuclear Repulsion Energy =   208.7375112290 hartrees
 There are       21 alpha and       20 beta electrons
 Requested basis set is 6-31G(d)
 There are 20 shells and 75 basis functions

 Total QAlloc Memory Limit   3000 MB
 Mega-Array Size      1467 MB
 MEM_STATIC part      1500 MB

                       Distance Matrix (Angstroms)
             C (  1)   F (  2)   F (  3)   F (  4)
   F (  2)  1.293397
   F (  3)  1.293351  2.123667
   F (  4)  1.330457  2.128914  2.128955
   F (  5)  1.291765  2.123382  2.123382  2.129674
 
 tim1(1): 
  0.000000000000000E+000
 tim1(2): 
  0.000000000000000E+000
 A cutoff of  1.0D-10 yielded    204 shell pairs
 There are      2979 function pairs
 
 -------------------------------------------------------
 OpenMP Integral Computing Module                       
 Release: version 1.0, May 2013, Q-Chem Inc. Pittsburgh 
 -------------------------------------------------------
 Integral Job Info:
 Integral job number is                      11
 Integral operator is                         1
 short-range coefficients                     0
 long-range coefficients              100000000
 Omega coefficients                           0
 if combine SR and LR in K                    0
 Integral screening is                        0
 Integral computing path is                   2
 max size of driver memory is            800000
 size of driver memory is                593474
 size of scratch memory is              2260544
 max col of scratch BK array               1296
 max len of scratch array in speh3          155
 max len of scratch index in speh4           18
 max int batch size is                      520
 min int batch size is                       52
 fixed nKL is                                52
 max L of basis functions is                  2
 order of int derivative is                   0
 number of shells is                         20
 number of basis is                          75
 number of cartesian basis is                75
 number of contracted shell pairs           204
 number of primitive shell pairs           1068
 maxK2 (contraction) of shell pair           36
 max number of K2 of shell pair               1
 max number of CS2 of shell pair             37
 max number of PS2 of shell pair            222
 mem total for path MDJ                   21832
 -------------------------------------------------------
 Smallest overlap matrix eigenvalue = 1.75E-03

 Scale SEOQF with 1.000000e+00/1.000000e-01/1.000000e+00

 Standard Electronic Orientation quadrupole field applied
 Nucleus-field energy     =     0.0000000108 hartrees
 Guess from superposition of atomic densities
 Warning:  Energy on first SCF cycle will be non-variational
 An unrestricted Hartree-Fock SCF calculation will be
 performed using Pulay DIIS + Geometric Direct Minimization
 SCF converges when RMS gradient is below 1.0E-07
 ---------------------------------------
  Cycle       Energy         DIIS Error
 ---------------------------------------
    1    -436.6392603300      8.94E-02
    2    -434.8183956775      1.84E-02
    3    -434.9907149079      8.17E-03 Done DIIS. Switching to GDM
    4    -435.0315147799      7.18E-02 Normal BFGS step
    5    -435.0456060239      1.05E-01 Dog-leg BFGS step
    6    -435.0716645302      4.44E-02 Normal BFGS step
    7    -435.0765720278      2.08E-02 Normal BFGS step
    8    -435.0794967965      9.23E-03 Normal BFGS step
    9    -435.0801226628      3.29E-03 Normal BFGS step
   10    -435.0802512284      1.91E-03 Normal BFGS step
   11    -435.0802816850      1.73E-03 Normal BFGS step
   12    -435.0803010385      1.55E-03 Normal BFGS step
   13    -435.0803112831      1.15E-03 Normal BFGS step
   14    -435.0803177432      6.39E-04 Normal BFGS step
   15    -435.0803208801      2.63E-04 Normal BFGS step
   16    -435.0803217203      1.16E-04 Normal BFGS step
   17    -435.0803218833      4.52E-05 Normal BFGS step
   18    -435.0803219118      1.46E-05 Normal BFGS step
   19    -435.0803219171      1.44E-05 Normal BFGS step
   20    -435.0803219184      1.49E-05 Normal BFGS step
   21    -435.0803219192      1.54E-05 Normal BFGS step
   22    -435.0803219206      1.59E-05 Normal BFGS step
   23    -435.0803219234      1.68E-05 Normal BFGS step
   24    -435.0803219302      1.87E-05 Normal BFGS step
   25    -435.0803219477      3.22E-05 Normal BFGS step
   26    -435.0803219939      5.33E-05 Normal BFGS step
   27    -435.0803221253      9.00E-05 Normal BFGS step
   28    -435.0803225665      1.72E-04 Normal BFGS step
   29    -435.0803188859      8.03E-04 Line search: overstep
   30    -435.0803228818      2.15E-04 Dog-leg BFGS step
   31    -435.0803239842      6.88E-04 Normal BFGS step
   32    -435.0803276064      4.68E-04 Normal BFGS step
   33    -435.0803131376      1.09E-03 Line search: overstep
   34    -435.0803309137      6.59E-04 Normal BFGS step
   35    -435.0803369471      6.29E-04 Normal BFGS step
   36    -435.0803402276      3.50E-04 Normal BFGS step
   37    -435.0803490774      1.12E-03 Normal BFGS step
   38    -435.0803606440      2.15E-04 Normal BFGS step
   39    -435.0803687850      7.84E-04 Normal BFGS step
   40    -435.0803745344      5.33E-04 Normal BFGS step
   41    -435.0803818290      6.70E-04 Normal BFGS step
   42    -435.0803811180      5.69E-04 Line search: overstep
   43    -435.0803854026      2.81E-04 Normal BFGS step
   44    -435.0803881755      2.84E-04 Normal BFGS step
   45    -435.0803907217      3.23E-04 Normal BFGS step
   46    -435.0803923628      2.84E-04 Normal BFGS step
   47    -435.0803935497      2.62E-04 Normal BFGS step
   48    -435.0803944534      1.72E-04 Normal BFGS step
   49    -435.0803947841      1.17E-04 Normal BFGS step
   50    -435.0803949286      5.90E-05 Normal BFGS step
   51    -435.0803949745      3.09E-05 Normal BFGS step
   52    -435.0803949834      1.04E-05 Normal BFGS step
   53    -435.0803949861      4.46E-06 Normal BFGS step
   54    -435.0803949865      2.54E-06 Normal BFGS step
   55    -435.0803949866      1.88E-06 Normal BFGS step
   56    -435.0803949866      1.22E-06 Normal BFGS step
   57    -435.0803949866      7.44E-07 Normal BFGS step
   58    -435.0803949867      5.27E-07 Normal BFGS step
   59    -435.0803949867      3.96E-07 Normal BFGS step
   60    -435.0803949867      1.75E-07 Normal BFGS step
   GDM::WARNING energy changes are now smaller than effective accuracy.
   GDM::        calculation will continue, but THRESH should be increased
   GDM::        or SCF_CONVERGENCE decreased.
   GDM::        effective_thresh =   4.018505393027505E-009
   61    -435.0803949867      5.76E-08 Convergence criterion met
 ---------------------------------------
 <S^2> = 0.7557
 SCF time:  CPU 10.49 s  wall 14.18 s
 SCF   energy in the final basis set = -435.0803949867
 Total energy in the final basis set = -435.0803949867
================================================================================
|                                                                              |
|                                 A D C  M A N                                 |
|                                                                              |
 ------------------------------------------------------------------------------ 
|                                                                              |
| Components:                                                                  |
|                                                                              |
| - libvmm - 1.2-release                                                       |
|   Authors:                                                                   |
|   Evgeny Epifanovsky, Ilya Kaliman                                           |
|                                                                              |
| - libtensor - 2.4-trunk                                                      |
|   Authors:                                                                   |
|   Evgeny Epifanovsky, Michael Wormit, Dmitry Zuev, Sam Manzer                |
|                                                                              |
| - libwfa - 1.1-beta                                                          |
|   Authors:                                                                   |
|   Felix Plasser, Stefanie Baeppler, Benjamin Thomitzni, Michael Wormit       |
|                                                                              |
| - libadc - 1.0-beta                                                          |
|   Authors:                                                                   |
|   Michael Wormit, Philipp H. P. Harbach, Caroline Krauter, Dirk Rehn,        |
|   Matthias Schneider, Jan Wenzel                                             |
|                                                                              |
| - adcman - 2.4-beta                                                          |
|   Authors:                                                                   |
|   Michael Wormit, Philipp H. P. Harbach, Caroline Krauter, Dirk Rehn,        |
|   Jan Wenzel, Andreas Dreuw                                                  |
|                                                                              |
| Authors of earlier versions of ADCMAN:                                       |
| Andreas Dreuw, Jan Hendrik Starcke, Dirk Rehn, Michael Wormit                |
|                                                                              |
================================================================================

 
 Alpha MOs, Unrestricted
 -- Occupied --                  
-26.994 -26.679 -26.666 -26.659 -11.930  -2.300  -2.062  -1.974
  1 A     2 A     3 A     4 A     5 A     6 A     7 A     8 A                  
 -1.964  -1.428  -1.403  -1.305  -1.230  -1.145  -1.134  -1.036
  9 A    10 A    11 A    12 A    13 A    14 A    15 A    16 A                  
 -1.013  -1.010  -0.972  -0.967  -0.950
 17 A    18 A    19 A    20 A    21 A                                          
 -- Virtual --                   
  0.032   0.120   0.132   0.174   0.322   0.382   0.390   0.430
 22 A    23 A    24 A    25 A    26 A    27 A    28 A    29 A                  
  0.915   0.919   0.948   1.045   1.049   1.130   1.165   1.201
 30 A    31 A    32 A    33 A    34 A    35 A    36 A    37 A                  
  1.303   1.311   1.357   1.362   1.384   1.384   1.455   1.456
 38 A    39 A    40 A    41 A    42 A    43 A    44 A    45 A                  
  1.495   1.714   1.716   1.821   1.834   1.839   1.866   1.928
 46 A    47 A    48 A    49 A    50 A    51 A    52 A    53 A                  
  1.937   1.942   1.956   1.975   2.068   2.074   2.121   2.284
 54 A    55 A    56 A    57 A    58 A    59 A    60 A    61 A                  
  2.551   2.625   2.637   2.845   2.851   2.991   3.130   3.136
 62 A    63 A    64 A    65 A    66 A    67 A    68 A    69 A                  
  3.142   4.279   4.398   4.492   4.502   6.004
 70 A    71 A    72 A    73 A    74 A    75 A                                  
 
 Beta MOs, Unrestricted
 -- Occupied --                  
-26.942 -26.676 -26.664 -26.659 -11.932  -2.155  -2.025  -1.966
  1 A     2 A     3 A     4 A     5 A     6 A     7 A     8 A                  
 -1.962  -1.384  -1.259  -1.222  -1.156  -1.124  -1.015  -1.007
  9 A    10 A    11 A    12 A    13 A    14 A    15 A    16 A                  
 -1.001  -0.971  -0.965  -0.948
 17 A    18 A    19 A    20 A                                                  
 -- Virtual --                   
 -0.454   0.054   0.133   0.156   0.175   0.329   0.389   0.390
 21 A    22 A    23 A    24 A    25 A    26 A    27 A    28 A                  
  0.431   0.935   0.959   1.002   1.051   1.052   1.135   1.210
 29 A    30 A    31 A    32 A    33 A    34 A    35 A    36 A                  
  1.249   1.314   1.327   1.358   1.372   1.385   1.387   1.498
 37 A    38 A    39 A    40 A    41 A    42 A    43 A    44 A                  
  1.498   1.503   1.745   1.749   1.823   1.838   1.841   1.879
 45 A    46 A    47 A    48 A    49 A    50 A    51 A    52 A                  
  1.943   1.944   1.965   1.979   1.983   2.076   2.077   2.121
 53 A    54 A    55 A    56 A    57 A    58 A    59 A    60 A                  
  2.290   2.568   2.636   2.640   2.850   2.851   3.008   3.133
 61 A    62 A    63 A    64 A    65 A    66 A    67 A    68 A                  
  3.136   3.143   4.300   4.397   4.495   4.503   6.008
 69 A    70 A    71 A    72 A    73 A    74 A    75 A                          
 

--------------------------------------------------------------------------------
                                   HF Summary                                   
--------------------------------------------------------------------------------
  Energy:                                                 -435.0803949867 a.u.
  Dip. moment [a.u.]:                  [ -53.770013,  183.264136,   -0.461593]
  Total dipole [Debye]:                                             485.448188
  <r^2> [a.u.]:                        [ 158.726512,  905.665438,   88.841161]
  Total <r^2> [a.u.]:                                              1153.233112
--------------------------------------------------------------------------------

--------------------------------------------------------------------------------
                                 MP(2) Summary                                  
--------------------------------------------------------------------------------
  Energy contribution:                                      -0.7560330062 a.u.
  Total energy:                                           -435.8364279929 a.u.
  Dip. moment [a.u.]:                  [ -53.861170,  183.103218,   -0.415009]
  Total dipole [Debye]:                                             485.120799
  <r^2> [a.u.]:                        [ 158.728013,  904.314783,   88.680081]
  Total <r^2> [a.u.]:                                              1151.722877
--------------------------------------------------------------------------------
  Starting Davidson ... 
--------------------------------------------------------------------------------
   It NVec Conv  Avg. Norm  Max. Norm  Conv. states           Remark
--------------------------------------------------------------------------------
        20    0  2.123e-01  1.133e+00 11.1173 n n n n n n n n Guess.
    1   40    0  3.642e-02  4.277e-01 10.7045 n n n n n n n n 
    2   60    0  7.846e-03  7.825e-02 10.7000 n n n n n n n n 
    3   80    0  2.402e-03  3.017e-02 10.6996 n n n n n n n n 
    4  100    0  1.382e-03  2.331e-02 10.6996 n n n n n n n n 
    5   40    0  1.111e-03  1.730e-02 10.6996 n n n n n n n n Subspace collapsed.
    6   60    0  1.047e-03  1.958e-02 10.6996 n n n n n n n n 
    7   80    0  8.459e-04  1.604e-02 10.6996 n n n n n n n n 
    8  100    1  3.875e-04  7.342e-03 10.6996 n n y n n n n n 
    9   40    7  2.616e-04  5.046e-03 10.6996 y y y n y y y y Subspace collapsed.
   10   60    8  1.299e-04  2.481e-03 10.6996 y y y y y y y y 
   11   80    9  7.309e-05  1.388e-03 10.6996 y y y y y y y y 
   12  100   13  6.572e-05  1.259e-03 10.6996 y y y y y y y y 
   13   40   17  4.513e-05  8.665e-04 10.6996 y y y y y y y y Subspace collapsed.
   14   60   17  5.005e-05  9.617e-04 10.6996 y y y y y y y y 
   15   80   17  3.994e-05  7.526e-04 10.6996 y y y y y y y y 
   16  100   17  2.900e-05  4.741e-04 10.6996 y y y y y y y y 
   17   40   17  1.736e-05  3.048e-04 10.6996 y y y y y y y y Subspace collapsed.
   18   40   17  1.736e-05  3.048e-04 10.6996 y y y y y y y y 
   19   60   17  1.103e-05  1.689e-04 10.6996 y y y y y y y y 
   20   63   17  1.090e-05  1.705e-04 10.6996 y y y y y y y y 
   21   63   17  1.090e-05  1.705e-04 10.6996 y y y y y y y y 
   22   64   17  1.069e-05  1.665e-04 10.6996 y y y y y y y y 
   23   64   17  1.069e-05  1.665e-04 10.6996 y y y y y y y y 
   24   64   17  1.069e-05  1.665e-04 10.6996 y y y y y y y y 
   25   84   17  7.535e-06  1.037e-04 10.6996 y y y y y y y y 
   26   96   17  7.531e-06  1.204e-04 10.6996 y y y y y y y y 
   27  100   17  7.547e-06  1.205e-04 10.6996 y y y y y y y y 
   28   32   17  5.595e-06  8.859e-05 10.6996 y y y y y y y y Subspace collapsed.
   29   32   17  5.595e-06  8.859e-05 10.6996 y y y y y y y y 
   30   34   17  5.623e-06  8.940e-05 10.6996 y y y y y y y y 
   31   34   17  5.623e-06  8.940e-05 10.6996 y y y y y y y y 
   32   35   17  5.625e-06  8.944e-05 10.6996 y y y y y y y y 
   33   35   17  5.625e-06  8.944e-05 10.6996 y y y y y y y y 
   34   35   17  5.625e-06  8.944e-05 10.6996 y y y y y y y y 
   35   55   17  6.147e-06  1.046e-04 10.6996 y y y y y y y y 
   36   66   17  6.325e-06  1.128e-04 10.6996 y y y y y y y y 
   37   77   17  8.098e-06  1.571e-04 10.6996 y y y y y y y y 
   38   88   17  1.079e-05  2.142e-04 10.6996 y y y y y y y y 
   39   94   17  1.098e-05  2.179e-04 10.6996 y y y y y y y y 
   40   95   17  1.035e-05  2.054e-04 10.6996 y y y y y y y y 
   41   96   17  1.049e-05  2.081e-04 10.6996 y y y y y y y y 
   42   96   17  1.049e-05  2.081e-04 10.6996 y y y y y y y y 
   43   96   17  1.049e-05  2.081e-04 10.6996 y y y y y y y y 
   44   96   17  1.049e-05  2.081e-04 10.6996 y y y y y y y y 
   45  100   17  1.058e-05  2.101e-04 10.6996 y y y y y y y y 
   46   22   17  1.056e-05  2.097e-04 10.6996 y y y y y y y y Subspace collapsed.
   47   25   17  1.047e-05  2.079e-04 10.6996 y y y y y y y y 
   48   27   17  1.047e-05  2.078e-04 10.6996 y y y y y y y y 
   49   27   17  1.047e-05  2.078e-04 10.6996 y y y y y y y y 
   50   27   17  1.047e-05  2.078e-04 10.6996 y y y y y y y y 
   51   47   17  5.629e-06  1.120e-04 10.6996 y y y y y y y y 
   52   48   17  5.588e-06  1.112e-04 10.6996 y y y y y y y y 
   53   48   17  5.588e-06  1.112e-04 10.6996 y y y y y y y y 
   54   48   17  5.588e-06  1.112e-04 10.6996 y y y y y y y y 
   55   48   17  5.588e-06  1.112e-04 10.6996 y y y y y y y y 
   56   68   17  4.347e-06  8.661e-05 10.6996 y y y y y y y y 
   57   71   17  3.747e-06  7.478e-05 10.6996 y y y y y y y y 
   58   74   17  2.701e-06  5.394e-05 10.6996 y y y y y y y y 
   59   77   17  2.672e-06  5.338e-05 10.6996 y y y y y y y y 
--------------------------------------------------------------------------------
  Davidson Summary: 
 ------------------------------------------------------------
  State  0: excitation energy =  10.6996 a.u.   (converged)
  State  1: excitation energy =  10.9796 a.u.   (converged)
  State  2: excitation energy =  11.0766 a.u.   (converged)
  State  3: excitation energy =  11.1103 a.u.   (converged)
  State  4: excitation energy =  11.1130 a.u.   (converged)
  State  5: excitation energy =  11.1863 a.u.   (converged)
  State  6: excitation energy =  11.1869 a.u.   (converged)
  State  7: excitation energy =  11.1970 a.u.   (converged)
  State  8: excitation energy =  11.2890 a.u.   (converged)
  State  9: excitation energy =  11.5233 a.u.   (converged)
  State 10: excitation energy =  11.5438 a.u.   (converged)
  State 11: excitation energy =  11.5541 a.u.   (converged)
  State 12: excitation energy =  11.5635 a.u.   (converged)
  State 13: excitation energy =  11.5770 a.u.   (converged)
  State 14: excitation energy =  11.5802 a.u.   (converged)
  State 15: excitation energy =  11.5966 a.u.   (converged)
  State 16: excitation energy =  11.6162 a.u.   (converged)
  State 17: excitation energy =  12.0962 a.u.   (not converged)
  State 18: excitation energy =  12.1184 a.u.   (not converged)
  State 19: excitation energy =  12.1283 a.u.   (not converged)
 ------------------------------------------------------------


--------------------------------------------------------------------------------
                             Excited State Summary
--------------------------------------------------------------------------------

  Excited state  1 (A)                                             [converged]
  ----------------------------------------------------------------------------
  Term symbol:  2 (-) A                                     R^2 =  2.72433e-13

  Total energy:                                           -425.1368067721 a.u.
  Excitation energy:                                             291.151501 eV

  Osc. strength:                                                      0.000001
  Trans. dip. moment [a.u.]:           [   0.000265,    0.000287,   -0.000133]
  <i|r^2|0> [a.u.]:                    [   0.001647,    0.000975,   -0.000712]

  V1^2 = 0.8691, V2^2 = 0.1309

  Important amplitudes:
     core i     occ j      vir a      vir b          v   
    ------------------------------------------------------
     5 (A) B              21 (A) B                -0.9296
     5 (A) B   10 (A) A   22 (A) A   21 (A) B     -0.0729
    ------------------------------------------------------
  ----------------------------------------------------------------------------


  Excited state  2 (A)                                             [converged]
  ----------------------------------------------------------------------------
  Term symbol:  3 (-) A                                     R^2 =  1.50946e-13

  Total energy:                                           -424.8568631589 a.u.
  Excitation energy:                                             298.769154 eV

  Osc. strength:                                                      0.002069
  Trans. dip. moment [a.u.]:           [  -0.005142,   -0.014977,    0.005648]
  <i|r^2|0> [a.u.]:                    [   0.015400,   -0.132403,    0.001814]

  V1^2 = 0.9591, V2^2 = 0.0409

  Important amplitudes:
     core i     occ j      vir a      vir b          v   
    ------------------------------------------------------
     5 (A) A              22 (A) A                -0.7041
     5 (A) B              22 (A) B                 0.5358
    ------------------------------------------------------
  ----------------------------------------------------------------------------


  Excited state  3 (A)                                             [converged]
  ----------------------------------------------------------------------------
  Term symbol:  4 (-) A                                     R^2 =  1.58624e-13

  Total energy:                                           -424.7598082761 a.u.
  Excitation energy:                                             301.410151 eV

  Osc. strength:                                                      0.119238
  Trans. dip. moment [a.u.]:           [   0.042865,    0.112450,   -0.040803]
  <i|r^2|0> [a.u.]:                    [  -0.124563,    0.998762,   -0.011050]

  V1^2 = 0.9537, V2^2 = 0.0463

  Important amplitudes:
     core i     occ j      vir a      vir b          v   
    ------------------------------------------------------
     5 (A) B              22 (A) B                 0.7057
     5 (A) A              22 (A) A                 0.5479
    ------------------------------------------------------
  ----------------------------------------------------------------------------


  Excited state  4 (A)                                             [converged]
  ----------------------------------------------------------------------------
  Term symbol:  5 (-) A                                     R^2 =  4.30302e-14

  Total energy:                                           -424.7260930660 a.u.
  Excitation energy:                                             302.327589 eV

  Osc. strength:                                                      0.001676
  Trans. dip. moment [a.u.]:           [  -0.014617,    0.002902,    0.002045]
  <i|r^2|0> [a.u.]:                    [   0.039397,    0.025367,   -0.000541]

  V1^2 = 0.9518, V2^2 = 0.0482

  Important amplitudes:
     core i     occ j      vir a      vir b          v   
    ------------------------------------------------------
     5 (A) A              23 (A) A                -0.6692
     5 (A) B              24 (A) B                -0.5277
    ------------------------------------------------------
  ----------------------------------------------------------------------------


  Excited state  5 (A)                                             [converged]
  ----------------------------------------------------------------------------
  Term symbol:  6 (-) A                                     R^2 =  3.47358e-14

  Total energy:                                           -424.7233939051 a.u.
  Excitation energy:                                             302.401037 eV

  Osc. strength:                                                      0.000071
  Trans. dip. moment [a.u.]:           [  -0.002212,   -0.001843,   -0.001131]
  <i|r^2|0> [a.u.]:                    [   0.005947,   -0.016525,   -0.000037]

  V1^2 = 0.9529, V2^2 = 0.0471

  Important amplitudes:
     core i     occ j      vir a      vir b          v   
    ------------------------------------------------------
     5 (A) A              24 (A) A                 0.6103
     5 (A) B              23 (A) B                 0.5908
    ------------------------------------------------------
  ----------------------------------------------------------------------------


  Excited state  6 (A)                                             [converged]
  ----------------------------------------------------------------------------
  Term symbol:  7 (-) A                                     R^2 =  1.86327e-13

  Total energy:                                           -424.6501224117 a.u.
  Excitation energy:                                             304.394856 eV

  Osc. strength:                                                      0.114124
  Trans. dip. moment [a.u.]:           [   0.096452,   -0.055682,   -0.053849]
  <i|r^2|0> [a.u.]:                    [  -0.258719,   -0.493361,    0.004093]

  V1^2 = 0.9439, V2^2 = 0.0561

  Important amplitudes:
     core i     occ j      vir a      vir b          v   
    ------------------------------------------------------
     5 (A) B              24 (A) B                -0.6399
     5 (A) A              23 (A) A                 0.5080
    ------------------------------------------------------
  ----------------------------------------------------------------------------


  Excited state  7 (A)                                             [converged]
  ----------------------------------------------------------------------------
  Term symbol:  8 (-) A                                     R^2 =  3.81965e-14

  Total energy:                                           -424.6494939213 a.u.
  Excitation energy:                                             304.411958 eV

  Osc. strength:                                                      0.114345
  Trans. dip. moment [a.u.]:           [  -0.065303,   -0.014388,   -0.104213]
  <i|r^2|0> [a.u.]:                    [   0.174698,   -0.127669,   -0.004246]

  V1^2 = 0.9450, V2^2 = 0.0550

  Important amplitudes:
     core i     occ j      vir a      vir b          v   
    ------------------------------------------------------
     5 (A) B              23 (A) B                -0.5805
     5 (A) A              24 (A) A                 0.5685
    ------------------------------------------------------
  ----------------------------------------------------------------------------


  Excited state  8 (A)                                             [converged]
  ----------------------------------------------------------------------------
  Term symbol:  9 (-) A                                     R^2 =  4.17294e-13

  Total energy:                                           -424.6394423898 a.u.
  Excitation energy:                                             304.685474 eV

  Osc. strength:                                                      0.001143
  Trans. dip. moment [a.u.]:           [  -0.007352,    0.005360,   -0.008386]
  <i|r^2|0> [a.u.]:                    [   0.020252,    0.048624,   -0.000038]

  V1^2 = 0.9344, V2^2 = 0.0656

  Important amplitudes:
     core i     occ j      vir a      vir b          v   
    ------------------------------------------------------
     5 (A) A              25 (A) A                 0.6065
     5 (A) B              25 (A) B                -0.5575
    ------------------------------------------------------
  ----------------------------------------------------------------------------


  Excited state  9 (A)                                             [converged]
  ----------------------------------------------------------------------------
  Term symbol:  10 (-) A                                    R^2 =  1.09097e-13

  Total energy:                                           -424.5474359761 a.u.
  Excitation energy:                                             307.189096 eV

  Osc. strength:                                                      0.014073
  Trans. dip. moment [a.u.]:           [  -0.011802,   -0.038585,    0.015550]
  <i|r^2|0> [a.u.]:                    [   0.007452,   -0.372363,   -0.023281]

  V1^2 = 0.9182, V2^2 = 0.0818

  Important amplitudes:
     core i     occ j      vir a      vir b          v   
    ------------------------------------------------------
     5 (A) B              25 (A) B                -0.6298
     5 (A) A              25 (A) A                -0.5918
    ------------------------------------------------------
  ----------------------------------------------------------------------------


  Excited state 10 (A)                                             [converged]
  ----------------------------------------------------------------------------
  Term symbol:  11 (-) A                                    R^2 =  2.13783e-13

  Total energy:                                           -424.3131231756 a.u.
  Excitation energy:                                             313.565071 eV

  Osc. strength:                                                      0.000578
  Trans. dip. moment [a.u.]:           [   0.003731,    0.007441,   -0.002436]
  <i|r^2|0> [a.u.]:                    [  -0.013544,    0.062732,   -0.003702]

  V1^2 = 0.8936, V2^2 = 0.1064

  Important amplitudes:
     core i     occ j      vir a      vir b          v   
    ------------------------------------------------------
     5 (A) A              26 (A) A                -0.7578
     5 (A) B              26 (A) B                 0.4151
    ------------------------------------------------------
  ----------------------------------------------------------------------------


  Excited state 11 (A)                                             [converged]
  ----------------------------------------------------------------------------
  Term symbol:  12 (-) A                                    R^2 =  2.51696e-13

  Total energy:                                           -424.2925877941 a.u.
  Excitation energy:                                             314.123867 eV

  Osc. strength:                                                      0.006775
  Trans. dip. moment [a.u.]:           [   0.011268,    0.025978,   -0.008864]
  <i|r^2|0> [a.u.]:                    [  -0.042772,    0.218770,   -0.012904]

  V1^2 = 0.8953, V2^2 = 0.1047

  Important amplitudes:
     core i     occ j      vir a      vir b          v   
    ------------------------------------------------------
     5 (A) B              26 (A) B                -0.7752
     5 (A) A              26 (A) A                -0.4571
    ------------------------------------------------------
  ----------------------------------------------------------------------------


  Excited state 12 (A)                                             [converged]
  ----------------------------------------------------------------------------
  Term symbol:  13 (-) A                                    R^2 =  5.03914e-13

  Total energy:                                           -424.2823623113 a.u.
  Excitation energy:                                             314.402117 eV

  Osc. strength:                                                      0.005327
  Trans. dip. moment [a.u.]:           [  -0.023976,    0.010690,    0.001571]
  <i|r^2|0> [a.u.]:                    [   0.062288,    0.095171,   -0.000730]

  V1^2 = 0.8919, V2^2 = 0.1081

  Important amplitudes:
     core i     occ j      vir a      vir b          v   
    ------------------------------------------------------
     5 (A) A              27 (A) A                 0.7810
     5 (A) A              23 (A) A                 0.3891
    ------------------------------------------------------
  ----------------------------------------------------------------------------


  Excited state 13 (A)                                             [converged]
  ----------------------------------------------------------------------------
  Term symbol:  14 (-) A                                    R^2 =  2.91616e-13

  Total energy:                                           -424.2729653996 a.u.
  Excitation energy:                                             314.657820 eV

  Osc. strength:                                                      0.000689
  Trans. dip. moment [a.u.]:           [   0.001818,    0.002341,    0.008979]
  <i|r^2|0> [a.u.]:                    [  -0.004604,    0.021108,   -0.000086]

  V1^2 = 0.8918, V2^2 = 0.1082

  Important amplitudes:
     core i     occ j      vir a      vir b          v   
    ------------------------------------------------------
     5 (A) A              28 (A) A                 0.6719
     5 (A) B              28 (A) B                -0.4897
    ------------------------------------------------------
  ----------------------------------------------------------------------------


  Excited state 14 (A)                                             [converged]
  ----------------------------------------------------------------------------
  Term symbol:  15 (-) A                                    R^2 =  3.75622e-13

  Total energy:                                           -424.2594749484 a.u.
  Excitation energy:                                             315.024914 eV

  Osc. strength:                                                      0.023607
  Trans. dip. moment [a.u.]:           [  -0.051174,    0.020424,    0.004774]
  <i|r^2|0> [a.u.]:                    [   0.133878,    0.182551,   -0.000295]

  V1^2 = 0.8909, V2^2 = 0.1091

  Important amplitudes:
     core i     occ j      vir a      vir b          v   
    ------------------------------------------------------
     5 (A) B              27 (A) B                 0.8028
     5 (A) A              27 (A) A                 0.3307
    ------------------------------------------------------
  ----------------------------------------------------------------------------


  Excited state 15 (A)                                             [converged]
  ----------------------------------------------------------------------------
  Term symbol:  16 (-) A                                    R^2 =  1.79365e-13

  Total energy:                                           -424.2562549330 a.u.
  Excitation energy:                                             315.112535 eV

  Osc. strength:                                                      0.028611
  Trans. dip. moment [a.u.]:           [   0.011819,    0.016734,    0.057326]
  <i|r^2|0> [a.u.]:                    [  -0.030772,    0.149933,   -0.001446]

  V1^2 = 0.8940, V2^2 = 0.1060

  Important amplitudes:
     core i     occ j      vir a      vir b          v   
    ------------------------------------------------------
     5 (A) B              28 (A) B                 0.6931
     5 (A) A              28 (A) A                 0.5203
    ------------------------------------------------------
  ----------------------------------------------------------------------------


  Excited state 16 (A)                                             [converged]
  ----------------------------------------------------------------------------
  Term symbol:  17 (-) A                                    R^2 =  3.83037e-13

  Total energy:                                           -424.2398498523 a.u.
  Excitation energy:                                             315.558940 eV

  Osc. strength:                                                      0.000088
  Trans. dip. moment [a.u.]:           [   0.000658,    0.002957,   -0.001497]
  <i|r^2|0> [a.u.]:                    [  -0.000187,    0.027983,    0.001543]

  V1^2 = 0.8897, V2^2 = 0.1103

  Important amplitudes:
     core i     occ j      vir a      vir b          v   
    ------------------------------------------------------
     5 (A) A              29 (A) A                -0.6417
     5 (A) B              29 (A) B                 0.5224
    ------------------------------------------------------
  ----------------------------------------------------------------------------


  Excited state 17 (A)                                             [converged]
  ----------------------------------------------------------------------------
  Term symbol:  18 (-) A                                    R^2 =  5.21289e-13

  Total energy:                                           -424.2202536375 a.u.
  Excitation energy:                                             316.092180 eV

  Osc. strength:                                                      0.014029
  Trans. dip. moment [a.u.]:           [  -0.012792,   -0.037899,    0.014543]
  <i|r^2|0> [a.u.]:                    [   0.020361,   -0.352224,   -0.013525]

  V1^2 = 0.8931, V2^2 = 0.1069

  Important amplitudes:
     core i     occ j      vir a      vir b          v   
    ------------------------------------------------------
     5 (A) B              29 (A) B                 0.6769
     5 (A) A              29 (A) A                 0.5677
    ------------------------------------------------------
  ----------------------------------------------------------------------------


  Excited state 18 (A)                                         [not converged]
  ----------------------------------------------------------------------------
  Term symbol:  19 (-) A                                    R^2 =  1.64062e-06

  Total energy:                                           -423.7402619742 a.u.
  Excitation energy:                                             329.153417 eV


  V1^2 = 0.8839, V2^2 = 0.1161

  Important amplitudes:
     core i     occ j      vir a      vir b          v   
    ------------------------------------------------------
     5 (A) A              31 (A) A                -0.8509
     5 (A) A              30 (A) A                -0.3386
    ------------------------------------------------------
  ----------------------------------------------------------------------------


  Excited state 19 (A)                                         [not converged]
  ----------------------------------------------------------------------------
  Term symbol:  20 (-) A                                    R^2 =  2.07208e-06

  Total energy:                                           -423.7180494671 a.u.
  Excitation energy:                                             329.757850 eV


  V1^2 = 0.8856, V2^2 = 0.1144

  Important amplitudes:
     core i     occ j      vir a      vir b          v   
    ------------------------------------------------------
     5 (A) A              32 (A) A                 0.9158
     5 (A) A              37 (A) A                -0.1573
    ------------------------------------------------------
  ----------------------------------------------------------------------------


  Excited state 20 (A)                                         [not converged]
  ----------------------------------------------------------------------------
  Term symbol:  21 (-) A                                    R^2 =  5.33825e-05

  Total energy:                                           -423.7081167070 a.u.
  Excitation energy:                                             330.028134 eV


  V1^2 = 0.8861, V2^2 = 0.1139

  Important amplitudes:
     core i     occ j      vir a      vir b          v   
    ------------------------------------------------------
     5 (A) B              31 (A) B                -0.9180
     5 (A) B              36 (A) B                -0.1559
    ------------------------------------------------------
  ----------------------------------------------------------------------------


--------------------------------------------------------------------------------
  Time of ADC calculation:  CPU 1279.42 s  wall 1316.36 s
================================================================================
 
 --------------------------------------------------------------
 
                    Orbital Energies (a.u.)
 --------------------------------------------------------------
 
 Alpha MOs
 -- Occupied --
-26.994 -26.679 -26.666 -26.659 -11.930  -2.300  -2.062  -1.974
 -1.964  -1.428  -1.403  -1.305  -1.230  -1.145  -1.134  -1.036
 -1.013  -1.010  -0.972  -0.967  -0.950
 -- Virtual --
  0.032   0.120   0.132   0.174   0.322   0.382   0.390   0.430
  0.915   0.919   0.948   1.045   1.049   1.130   1.165   1.201
  1.303   1.311   1.357   1.362   1.384   1.384   1.455   1.456
  1.495   1.714   1.716   1.821   1.834   1.839   1.866   1.928
  1.937   1.942   1.956   1.975   2.068   2.074   2.121   2.284
  2.551   2.625   2.637   2.845   2.851   2.991   3.130   3.136
  3.142   4.279   4.398   4.492   4.502   6.004
 
 Beta MOs
 -- Occupied --
-26.942 -26.676 -26.664 -26.659 -11.932  -2.155  -2.025  -1.966
 -1.962  -1.384  -1.259  -1.222  -1.156  -1.124  -1.015  -1.007
 -1.001  -0.971  -0.965  -0.948
 -- Virtual --
 -0.454   0.054   0.133   0.156   0.175   0.329   0.389   0.390
  0.431   0.935   0.959   1.002   1.051   1.052   1.135   1.210
  1.249   1.314   1.327   1.358   1.372   1.385   1.387   1.498
  1.498   1.503   1.745   1.749   1.823   1.838   1.841   1.879
  1.943   1.944   1.965   1.979   1.983   2.076   2.077   2.121
  2.290   2.568   2.636   2.640   2.850   2.851   3.008   3.133
  3.136   3.143   4.300   4.397   4.495   4.503   6.008
 --------------------------------------------------------------
 
          Ground-State Mulliken Net Atomic Charges

     Atom                 Charge (a.u.)    Spin (a.u.)
  --------------------------------------------------------
      1 C                     1.339425      -0.065845
      2 F                    -0.212234       0.053028
      3 F                    -0.223569       0.020299
      4 F                     0.323694       0.989455
      5 F                    -0.227316       0.003063
  --------------------------------------------------------
  Sum of atomic charges =     1.000000
  Sum of spin   charges =     1.000000

 -----------------------------------------------------------------
                    Cartesian Multipole Moments
 -----------------------------------------------------------------
    Charge (ESU x 10^10)
                 4.8032
    Dipole Moment (Debye)
         X      -4.4009      Y       8.2278      Z       1.1612
       Tot       9.4029
    Quadrupole Moments (Debye-Ang)
        XX     -17.3025     XY      -6.8538     YY      -6.1666
        XZ      -1.4411     YZ       1.2980     ZZ     -21.9268
    Octopole Moments (Debye-Ang^2)
       XXX      39.9321    XXY     -45.4804    XYY       3.7078
       YYY    -123.1046    XXZ       2.1097    XYZ      -1.8658
       YYZ       1.3865    XZZ      14.9794    YZZ     -52.4860
       ZZZ       0.7383
    Hexadecapole Moments (Debye-Ang^3)
      XXXX    -125.1120   XXXY     101.9558   XXYY    -148.0034
      XYYY      88.0933   YYYY    -734.9517   XXXZ      -3.5735
      XXYZ       2.7893   XYYZ      -2.9044   YYYZ       1.2888
      XXZZ     -34.1356   XYZZ      36.0510   YYZZ    -148.1572
      XZZZ      -0.4750   YZZZ       0.6313   ZZZZ     -71.2871
 -----------------------------------------------------------------
Archival summary:
1\1\tp-linux1\SP\HF\6-31G*\41(1+,2)\thomas\WedMar2211:54:132017WedMar2211:54:132017\0\\#,HF,6-31G*,\\1,2\C\F,1,1.29176\F,1,1.29335,2,110.448\F,1,1.2934,2,110.445,3,122.37,0\F,1,1.33046,2,108.607,3,-118.82,0\\HF=-435.080395\\@

 Total job time:  1332.56s(wall), 1291.72s(cpu) 
 Wed Mar 22 11:54:13 2017

        *************************************************************
        *                                                           *
        *  Thank you very much for using Q-Chem.  Have a nice day.  *
        *                                                           *
        *************************************************************


0 sent ACK to 0 
now end server 0 ... 
cleanup process ... done
