
Running Job 1 of 1 ddtraj1t10.inp
qchem ddtraj1t10.inp_25134.0 /scratch/qchem/qchem25134/ 1
/mnt/software/qchem/bin/mpi/mpirun_qchem -machinefile /mnt/software/qchem/bin/mpi/machines -np 1 /mnt/software/qchem/exe/qcprog.exe ddtraj1t10.inp_25134.0 /scratch/qchem/qchem25134/

Process 0 of 1 is on tp-linux1 - thread support 0
initial socket setup ...start
initial socket setup ...done 
now start server 0 ... 

cmd = ssh tp-linux1 /mnt/software/qchem/bin/get_hostid 45493739 > /scratch/qchem/qchem25134/lic.dat
                  Welcome to Q-Chem
     A Quantum Leap Into The Future Of Chemistry


 Q-Chem 4.3, Q-Chem, Inc., Pleasanton, CA (2015)

 Y. Shao,  Z. Gan,  E. Epifanovsky,  A. T. B. Gilbert,  M. Wormit,  
 J. Kussmann,  A. W. Lange,  A. Behn,  J. Deng,  X. Feng,  D. Ghosh,  
 M. Goldey,  P. R. Horn,  L. D. Jacobson,  I. Kaliman,  R. Z. Khaliullin,  
 T. Kus,  A. Landau,  J. Liu,  E. I. Proynov,  Y. M. Rhee,  R. M. Richard,  
 M. A. Rohrdanz,  R. P. Steele,  E. J. Sundstrom,  H. L. Woodcock III,  
 P. M. Zimmerman,  D. Zuev,  B. Albrecht,  E. Alguire,  B. Austin,  
 S. A. Baeppler,  G. J. O. Beran,  Y. A. Bernard,  E. Berquist,  
 K. Brandhorst,  K. B. Bravaya,  S. T. Brown,  D. Casanova,  C.-M. Chang,  
 Y. Chen,  S. H. Chien,  K. D. Closser,  D. L. Crittenden,  M. Diedenhofen,  
 R. A. DiStasio Jr.,  H. Do,  A. D. Dutoi,  R. G. Edgar,  P.-T. Fang,  
 S. Fatehi,  Q. Feng,  L. Fusti-Molnar,  A. Ghysels,  
 A. Golubeva-Zadorozhnaya,  J. Gomes,  A. Gunina,  M. W. D. Hanson-Heine,  
 P. H. P. Harbach,  A. W. Hauser,  E. G. Hohenstein,  Z. C. Holden,  K. Hui,  
 T.-C. Jagau,  H. Ji,  B. Kaduk,  K. Khistyaev,  Jaehoon Kim,  Jihan Kim,  
 R. A. King,  P. Klunzinger,  D. Kosenkov,  T. Kowalczyk,  C. M. Krauter,  
 K. U. Lao,  A. Laurent,  K. V. Lawler,  S. Lehtola,  S. V. Levchenko,  
 C. Y. Lin,  Y.-S. Lin,  F. Liu,  E. Livshits,  R. C. Lochan,  A. Luenser,  
 P. Manohar,  S. F. Manzer,  S.-P. Mao,  N. Mardirossian,  A. V. Marenich,  
 L. A. Martinez-Martinez,  S. A. Maurer,  N. J. Mayhall,  K. Nanda,  
 C. M. Oana,  R. Olivares-Amaya,  D. P. O'Neill,  J. A. Parkhill,  
 T. M. Perrine,  R. Peverati,  P. A. Pieniazek,  F. Plasser,  A. Prociuk,  
 D. R. Rehn,  E. Rosta,  N. J. Russ,  N. Sergueev,  S. M. Sharada,  
 S. Sharma,  D. W. Small,  A. Sodt,  T. Stauch,  T. Stein,  D. Stuck,  
 Y.-C. Su,  A. J. W. Thom,  T. Tsuchimochi,  L. Vogt,  O. Vydrov,  T. Wang,  
 M. A. Watson,  J. Wenzel,  A. White,  C. F. Williams,  V. Vanovschi,  
 S. Yeganeh,  S. R. Yost,  Z.-Q. You,  I. Y. Zhang,  X. Zhang,  Y. Zhao,  
 B. R. Brooks,  G. K. L. Chan,  D. M. Chipman,  C. J. Cramer,  
 W. A. Goddard III,  M. S. Gordon,  W. J. Hehre,  A. Klamt,  
 H. F. Schaefer III,  M. W. Schmidt,  C. D. Sherrill,  D. G. Truhlar,  
 A. Warshel,  X. Xu,  A. Aspuru-Guzik,  R. Baer,  A. T. Bell,  N. A. Besley,  
 J.-D. Chai,  A. Dreuw,  B. D. Dunietz,  T. R. Furlani,  S. R. Gwaltney,  
 C.-P. Hsu,  Y. Jung,  J. Kong,  D. S. Lambrecht,  W. Liang,  C. Ochsenfeld,  
 V. A. Rassolov,  L. V. Slipchenko,  J. E. Subotnik,  T. Van Voorhis,  
 J. M. Herbert,  A. I. Krylov,  P. M. W. Gill,  M. Head-Gordon

 Contributors to earlier versions of Q-Chem not listed above: 
 R. D. Adamson,  J. Baker,  E. F. C. Byrd,  A. K. Chakraborty,  C.-L. Cheng,  
 H. Dachsel,  R. J. Doerksen,  G. Hawkins,  A. Heyden,  S. Hirata,  
 G. Kedziora,  F. J. Keil,  C. Kelley,  P. P. Korambath,  W. Kurlancheek,  
 A. M. Lee,  M. S. Lee,  D. Liotard,  I. Lotan,  P. E. Maslen,  N. Nair,  
 D. Neuhauser,  R. Olson,  B. Peters,  J. Ritchie,  N. E. Schultz,  
 N. Shenvi,  A. C. Simmonett,  K. S. Thanthiriwatte,  Q. Wu,  W. Zhang

 Please cite Q-Chem as follows:
 Y. Shao et al., Mol. Phys. 113, 184-215 (2015)
 DOI: 10.1080/00268976.2014.952696

 Q-Chem 4.3.0 for Intel X86 Linux

 Parts of Q-Chem use Armadillo 5.200.1 (Boston Tea Smuggler).
 http://arma.sourceforge.net/

 Q-Chem begins on Wed Mar 22 14:29:28 2017  

Host: 
0

     Scratch files written to /scratch/qchem/qchem25134//
 Nov1815 1189b_ 19540  19532 5443   
 Parallel job on  1  processors
Processing $rem in /mnt/software/qchem/config/preferences.
 MEM_TOTAL  2000 

Checking the input file for inconsistencies... 	...done.

--------------------------------------------------------------
User input:
--------------------------------------------------------------
$comment
XAS calculation for valence excited states for CF4+ using cvs-adc(2) + 6-31G* basis set
job 1 - determination of HF orbitals
$end

$molecule
1 2
6  -0.580591  2.673997  -0.125948
9  0.579487  2.321668  0.008156
9  -1.140882  3.256886  0.786676
9  -1.174715  1.075681  0.477823
9  -1.136246  2.5396  -1.193102
$end

$comment
cvs-adc(2) calculation
$end

$rem
mem_total 3000
mem_static 1500
sym_ignore true
method cvs-adc(2)
basis 6-31G*
ee_singlets 20
cc_rest_occ 5                  !only excitations from the lowest N orbitals
unrestricted  true
max_scf_cycles 200
SCF_ALGORITHM = DIIS_GDM
SCF_CONVERGENCE = 7
THRESH = 10
$end
--------------------------------------------------------------
 ----------------------------------------------------------------
             Standard Nuclear Orientation (Angstroms)
    I     Atom           X                Y                Z
 ----------------------------------------------------------------
    1      C      -0.5805910000     2.6739970000    -0.1259480000
    2      F       0.5794870000     2.3216680000     0.0081560000
    3      F      -1.1408820000     3.2568860000     0.7866760000
    4      F      -1.1747150000     1.0756810000     0.4778230000
    5      F      -1.1362460000     2.5396000000    -1.1931020000
 ----------------------------------------------------------------
 Nuclear Repulsion Energy =   205.5260252218 hartrees
 There are       21 alpha and       20 beta electrons
 Requested basis set is 6-31G(d)
 There are 20 shells and 75 basis functions

 Total QAlloc Memory Limit   3000 MB
 Mega-Array Size      1467 MB
 MEM_STATIC part      1500 MB

                       Distance Matrix (Angstroms)
             C (  1)   F (  2)   F (  3)   F (  4)
   F (  2)  1.219795
   F (  3)  1.219249  2.107225
   F (  4)  1.808905  2.202339  2.203223
   F (  5)  1.210633  2.105767  2.105716  2.221830
 
 tim1(1): 
  0.000000000000000E+000
 tim1(2): 
  0.000000000000000E+000
 A cutoff of  1.0D-10 yielded    203 shell pairs
 There are      2978 function pairs
 
 -------------------------------------------------------
 OpenMP Integral Computing Module                       
 Release: version 1.0, May 2013, Q-Chem Inc. Pittsburgh 
 -------------------------------------------------------
 Integral Job Info:
 Integral job number is                      11
 Integral operator is                         1
 short-range coefficients                     0
 long-range coefficients              100000000
 Omega coefficients                           0
 if combine SR and LR in K                    0
 Integral screening is                        0
 Integral computing path is                   2
 max size of driver memory is            800000
 size of driver memory is                593474
 size of scratch memory is              2260544
 max col of scratch BK array               1296
 max len of scratch array in speh3          155
 max len of scratch index in speh4           18
 max int batch size is                      520
 min int batch size is                       52
 fixed nKL is                                52
 max L of basis functions is                  2
 order of int derivative is                   0
 number of shells is                         20
 number of basis is                          75
 number of cartesian basis is                75
 number of contracted shell pairs           203
 number of primitive shell pairs           1063
 maxK2 (contraction) of shell pair           36
 max number of K2 of shell pair               1
 max number of CS2 of shell pair             35
 max number of PS2 of shell pair            210
 mem total for path MDJ                   21832
 -------------------------------------------------------
 Smallest overlap matrix eigenvalue = 1.44E-03

 Scale SEOQF with 1.000000e+00/1.000000e-01/1.000000e+00

 Standard Electronic Orientation quadrupole field applied
 Nucleus-field energy     =     0.0000000108 hartrees
 Guess from superposition of atomic densities
 Warning:  Energy on first SCF cycle will be non-variational
 An unrestricted Hartree-Fock SCF calculation will be
 performed using Pulay DIIS + Geometric Direct Minimization
 SCF converges when RMS gradient is below 1.0E-07
 ---------------------------------------
  Cycle       Energy         DIIS Error
 ---------------------------------------
    1    -436.6210228661      9.40E-02
    2    -434.9168372953      1.82E-02
    3    -435.1157011579      7.90E-03 Done DIIS. Switching to GDM
    4    -435.1495840469      4.14E-02 Normal BFGS step
    5    -435.1523308715      1.64E-02 Normal BFGS step
    6    -435.1530077855      6.07E-03 Normal BFGS step
    7    -435.1530883335      5.74E-03 Normal BFGS step
    8    -435.1532135755      4.89E-03 Normal BFGS step
    9    -435.1533135726      4.01E-03 Normal BFGS step
   10    -435.1534896519      3.08E-03 Normal BFGS step
   11    -435.1536294534      2.70E-03 Normal BFGS step
   12    -435.1537014441      1.31E-03 Normal BFGS step
   13    -435.1537162539      4.41E-04 Normal BFGS step
   14    -435.1537180259      1.75E-04 Normal BFGS step
   15    -435.1537183652      1.65E-04 Normal BFGS step
   16    -435.1537184644      1.62E-04 Normal BFGS step
   17    -435.1537185508      1.61E-04 Normal BFGS step
   18    -435.1537186961      1.62E-04 Normal BFGS step
   19    -435.1537190585      1.64E-04 Normal BFGS step
   20    -435.1537199452      2.63E-04 Normal BFGS step
   21    -435.1537222907      4.52E-04 Normal BFGS step
   22    -435.1537286157      7.85E-04 Normal BFGS step
   23    -435.1537388553      1.49E-03 Normal BFGS step
   24    -435.1537558036      1.16E-03 Dog-leg BFGS step
   25    -435.1538009281      4.57E-03 Normal BFGS step
   26    -435.1538198412      1.49E-03 Normal BFGS step
   27    -435.1538537881      8.76E-04 Normal BFGS step
   28    -435.1538633762      2.80E-03 Normal BFGS step
   29    -435.1538783478      1.97E-03 Normal BFGS step
   30    -435.1539136348      1.19E-03 Normal BFGS step
   31    -435.1539293332      2.25E-03 Normal BFGS step
   32    -435.1539404209      1.35E-03 Normal BFGS step
   33    -435.1539514489      8.52E-04 Normal BFGS step
   34    -435.1539586142      1.31E-03 Normal BFGS step
   35    -435.1539636425      6.84E-04 Normal BFGS step
   36    -435.1539678970      3.13E-04 Normal BFGS step
   37    -435.1539698395      6.54E-04 Normal BFGS step
   38    -435.1539706740      1.50E-04 Normal BFGS step
   39    -435.1539709448      5.57E-05 Normal BFGS step
   40    -435.1539710406      4.19E-05 Normal BFGS step
   41    -435.1539710476      5.01E-06 Normal BFGS step
   42    -435.1539710481      3.75E-06 Normal BFGS step
   43    -435.1539710482      3.22E-06 Normal BFGS step
   44    -435.1539710483      2.76E-06 Normal BFGS step
   45    -435.1539710483      2.35E-06 Normal BFGS step
   46    -435.1539710484      1.63E-06 Normal BFGS step
   47    -435.1539710484      1.18E-06 Normal BFGS step
   48    -435.1539710484      6.73E-07 Normal BFGS step
   49    -435.1539710484      3.03E-07 Normal BFGS step
   50    -435.1539710484      8.08E-08 Convergence criterion met
 ---------------------------------------
 <S^2> = 0.7537
 SCF time:  CPU 7.76 s  wall 10.68 s
 SCF   energy in the final basis set = -435.1539710484
 Total energy in the final basis set = -435.1539710484
================================================================================
|                                                                              |
|                                 A D C  M A N                                 |
|                                                                              |
 ------------------------------------------------------------------------------ 
|                                                                              |
| Components:                                                                  |
|                                                                              |
| - libvmm - 1.2-release                                                       |
|   Authors:                                                                   |
|   Evgeny Epifanovsky, Ilya Kaliman                                           |
|                                                                              |
| - libtensor - 2.4-trunk                                                      |
|   Authors:                                                                   |
|   Evgeny Epifanovsky, Michael Wormit, Dmitry Zuev, Sam Manzer                |
|                                                                              |
| - libwfa - 1.1-beta                                                          |
|   Authors:                                                                   |
|   Felix Plasser, Stefanie Baeppler, Benjamin Thomitzni, Michael Wormit       |
|                                                                              |
| - libadc - 1.0-beta                                                          |
|   Authors:                                                                   |
|   Michael Wormit, Philipp H. P. Harbach, Caroline Krauter, Dirk Rehn,        |
|   Matthias Schneider, Jan Wenzel                                             |
|                                                                              |
| - adcman - 2.4-beta                                                          |
|   Authors:                                                                   |
|   Michael Wormit, Philipp H. P. Harbach, Caroline Krauter, Dirk Rehn,        |
|   Jan Wenzel, Andreas Dreuw                                                  |
|                                                                              |
| Authors of earlier versions of ADCMAN:                                       |
| Andreas Dreuw, Jan Hendrik Starcke, Dirk Rehn, Michael Wormit                |
|                                                                              |
================================================================================

 
 Alpha MOs, Unrestricted
 -- Occupied --                  
-26.739 -26.725 -26.723 -26.723 -11.941  -2.164  -2.054  -2.051
  1 A     2 A     3 A     4 A     5 A     6 A     7 A     8 A                  
 -1.998  -1.316  -1.231  -1.230  -1.209  -1.162  -1.074  -1.058
  9 A    10 A    11 A    12 A    13 A    14 A    15 A    16 A                  
 -1.057  -1.031  -1.016  -1.010  -1.006
 17 A    18 A    19 A    20 A    21 A                                          
 -- Virtual --                   
 -0.136   0.071   0.224   0.232   0.398   0.426   0.436   0.462
 22 A    23 A    24 A    25 A    26 A    27 A    28 A    29 A                  
  0.952   0.955   0.986   1.019   1.021   1.061   1.256   1.256
 30 A    31 A    32 A    33 A    34 A    35 A    36 A    37 A                  
  1.262   1.286   1.290   1.313   1.319   1.341   1.474   1.592
 38 A    39 A    40 A    41 A    42 A    43 A    44 A    45 A                  
  1.602   1.616   1.707   1.713   1.780   1.788   1.792   1.953
 46 A    47 A    48 A    49 A    50 A    51 A    52 A    53 A                  
  1.955   1.985   1.986   2.035   2.054   2.059   2.066   2.154
 54 A    55 A    56 A    57 A    58 A    59 A    60 A    61 A                  
  2.435   2.704   2.713   2.726   3.024   3.036   3.282   3.286
 62 A    63 A    64 A    65 A    66 A    67 A    68 A    69 A                  
  3.308   3.856   4.386   4.992   5.029   6.523
 70 A    71 A    72 A    73 A    74 A    75 A                                  
 
 Beta MOs, Unrestricted
 -- Occupied --                  
-26.725 -26.723 -26.723 -26.689 -11.941  -2.161  -2.055  -2.050
  1 A     2 A     3 A     4 A     5 A     6 A     7 A     8 A                  
 -1.809  -1.314  -1.230  -1.229  -1.198  -1.058  -1.057  -1.055
  9 A    10 A    11 A    12 A    13 A    14 A    15 A    16 A                  
 -1.038  -1.005  -0.976  -0.968
 17 A    18 A    19 A    20 A                                                  
 -- Virtual --                   
 -0.232  -0.134   0.075   0.232   0.236   0.399   0.431   0.437
 21 A    22 A    23 A    24 A    25 A    26 A    27 A    28 A                  
  0.467   0.968   0.996   1.019   1.020   1.044   1.078   1.262
 29 A    30 A    31 A    32 A    33 A    34 A    35 A    36 A                  
  1.264   1.268   1.290   1.291   1.319   1.355   1.423   1.477
 37 A    38 A    39 A    40 A    41 A    42 A    43 A    44 A                  
  1.618   1.621   1.622   1.741   1.741   1.791   1.820   1.824
 45 A    46 A    47 A    48 A    49 A    50 A    51 A    52 A                  
  1.953   1.956   2.003   2.005   2.059   2.060   2.072   2.091
 53 A    54 A    55 A    56 A    57 A    58 A    59 A    60 A                  
  2.160   2.440   2.705   2.714   2.742   3.025   3.036   3.282
 61 A    62 A    63 A    64 A    65 A    66 A    67 A    68 A                  
  3.287   3.309   3.886   4.388   4.993   5.029   6.525
 69 A    70 A    71 A    72 A    73 A    74 A    75 A                          
 

--------------------------------------------------------------------------------
                                   HF Summary                                   
--------------------------------------------------------------------------------
  Energy:                                                 -435.1539710484 a.u.
  Dip. moment [a.u.]:                  [ -54.180987,  182.030381,    0.026228]
  Total dipole [Debye]:                                             482.735495
  <r^2> [a.u.]:                        [ 159.414251,  904.409441,   88.911468]
  Total <r^2> [a.u.]:                                              1152.735160
--------------------------------------------------------------------------------

--------------------------------------------------------------------------------
                                 MP(2) Summary                                  
--------------------------------------------------------------------------------
  Energy contribution:                                      -0.7423074193 a.u.
  Total energy:                                           -435.8962784678 a.u.
  Dip. moment [a.u.]:                  [ -54.170262,  182.062286,    0.012062]
  Total dipole [Debye]:                                             482.805441
  <r^2> [a.u.]:                        [ 159.186768,  904.815470,   88.712767]
  Total <r^2> [a.u.]:                                              1152.715005
--------------------------------------------------------------------------------
  Starting Davidson ... 
--------------------------------------------------------------------------------
   It NVec Conv  Avg. Norm  Max. Norm  Conv. states           Remark
--------------------------------------------------------------------------------
        20    0  2.098e-01  1.112e+00 10.9974 n n n n n n n n Guess.
    1   40    0  3.929e-02  4.169e-01 10.8411 n n n n n n n n 
    2   60    0  1.018e-02  1.121e-01 10.8396 n n n n n n n n 
    3   80    0  2.494e-03  2.596e-02 10.8395 n n n n n n n n 
    4  100    0  2.032e-03  2.543e-02 10.8395 n n n n n n n n 
    5   40    0  5.899e-04  7.472e-03 10.8395 n n n n n n n n Subspace collapsed.
    6   60    0  5.468e-04  7.185e-03 10.8395 n n n n n n n n 
    7   80    1  4.038e-04  5.949e-03 10.8395 y n n n n n n n 
    8  100    2  4.581e-04  7.062e-03 10.8395 y y n n n n n n 
    9   40    6  2.180e-04  3.358e-03 10.8395 y y y n y n y n Subspace collapsed.
   10   60    7  1.807e-04  2.715e-03 10.8395 y y y n y y y n 
   11   80    9  2.008e-04  2.993e-03 10.8395 y y y y y y y y 
   12  100   14  2.681e-04  4.087e-03 10.8395 y y y y y y y y 
   13   40   15  1.373e-04  2.126e-03 10.8395 y y y y y y y y Subspace collapsed.
   14   60   15  1.308e-04  2.096e-03 10.8395 y y y y y y y y 
   15   80   15  1.095e-04  1.811e-03 10.8395 y y y y y y y y 
   16   80   15  1.095e-04  1.811e-03 10.8395 y y y y y y y y 
   17  100   15  1.503e-04  2.468e-03 10.8395 y y y y y y y y 
   18   38   16  9.041e-05  1.501e-03 10.8395 y y y y y y y y Subspace collapsed.
   19   56   16  8.898e-05  1.408e-03 10.8395 y y y y y y y y 
   20   56   16  8.898e-05  1.408e-03 10.8395 y y y y y y y y 
   21   76   16  1.002e-04  1.638e-03 10.8395 y y y y y y y y 
   22   90   16  1.027e-04  1.628e-03 10.8395 y y y y y y y y 
   23  100   16  1.260e-04  2.176e-03 10.8395 y y y y y y y y 
   24   31   16  7.266e-05  1.187e-03 10.8395 y y y y y y y y Subspace collapsed.
   25   42   17  6.914e-05  1.104e-03 10.8395 y y y y y y y y 
   26   53   17  5.390e-05  8.779e-04 10.8395 y y y y y y y y 
   27   56   17  5.367e-05  8.739e-04 10.8395 y y y y y y y y 
   28   59   17  5.337e-05  8.687e-04 10.8395 y y y y y y y y 
   29   61   17  5.365e-05  8.744e-04 10.8395 y y y y y y y y 
   30   62   17  5.365e-05  8.743e-04 10.8395 y y y y y y y y 
   31   63   17  5.368e-05  8.731e-04 10.8395 y y y y y y y y 
   32   63   17  5.368e-05  8.731e-04 10.8395 y y y y y y y y 
   33   63   17  5.368e-05  8.731e-04 10.8395 y y y y y y y y 
   34   83   17  7.466e-05  1.213e-03 10.8395 y y y y y y y y 
   35   88   17  1.006e-04  1.450e-03 10.8395 y y y y y y y y 
   36   93   17  6.811e-05  1.143e-03 10.8395 y y y y y y y y 
   37   98   17  5.010e-05  8.441e-04 10.8395 y y y y y y y y 
   38  100   17  4.981e-05  8.398e-04 10.8395 y y y y y y y y 
   39   25   17  2.367e-05  3.971e-04 10.8395 y y y y y y y y Subspace collapsed.
   40   30   17  2.200e-05  3.600e-04 10.8395 y y y y y y y y 
   41   35   17  1.888e-05  3.146e-04 10.8395 y y y y y y y y 
   42   40   17  1.701e-05  2.775e-04 10.8395 y y y y y y y y 
   43   45   17  1.713e-05  2.712e-04 10.8395 y y y y y y y y 
   44   50   17  1.316e-05  2.091e-04 10.8395 y y y y y y y y 
   45   55   17  1.057e-05  1.684e-04 10.8395 y y y y y y y y 
   46   60   18  9.875e-06  1.565e-04 10.8395 y y y y y y y y 
   47   61   18  9.989e-06  1.586e-04 10.8395 y y y y y y y y 
   48   62   18  9.989e-06  1.586e-04 10.8395 y y y y y y y y 
   49   63   18  1.008e-05  1.597e-04 10.8395 y y y y y y y y 
   50   64   18  1.006e-05  1.593e-04 10.8395 y y y y y y y y 
   51   65   18  1.019e-05  1.611e-04 10.8395 y y y y y y y y 
   52   65   18  1.019e-05  1.611e-04 10.8395 y y y y y y y y 
   53   65   18  1.019e-05  1.611e-04 10.8395 y y y y y y y y 
   54   65   18  1.019e-05  1.611e-04 10.8395 y y y y y y y y 
   55   85   18  7.573e-06  1.163e-04 10.8395 y y y y y y y y 
   56   89   18  7.301e-06  1.061e-04 10.8395 y y y y y y y y 
   57   93   18  7.830e-06  1.166e-04 10.8395 y y y y y y y y 
   58   93   18  7.830e-06  1.166e-04 10.8395 y y y y y y y y 
   59   94   18  7.953e-06  1.186e-04 10.8395 y y y y y y y y 
--------------------------------------------------------------------------------
  Davidson Summary: 
 ------------------------------------------------------------
  State  0: excitation energy =  10.8395 a.u.   (converged)
  State  1: excitation energy =  10.9158 a.u.   (converged)
  State  2: excitation energy =  11.0016 a.u.   (converged)
  State  3: excitation energy =  11.1672 a.u.   (converged)
  State  4: excitation energy =  11.2371 a.u.   (converged)
  State  5: excitation energy =  11.2376 a.u.   (converged)
  State  6: excitation energy =  11.2466 a.u.   (converged)
  State  7: excitation energy =  11.3183 a.u.   (converged)
  State  8: excitation energy =  11.3275 a.u.   (converged)
  State  9: excitation energy =  11.5258 a.u.   (converged)
  State 10: excitation energy =  11.5754 a.u.   (converged)
  State 11: excitation energy =  11.5869 a.u.   (converged)
  State 12: excitation energy =  11.5913 a.u.   (converged)
  State 13: excitation energy =  11.6032 a.u.   (converged)
  State 14: excitation energy =  11.6052 a.u.   (converged)
  State 15: excitation energy =  11.6789 a.u.   (converged)
  State 16: excitation energy =  11.6989 a.u.   (converged)
  State 17: excitation energy =  12.1692 a.u.   (converged)
  State 18: excitation energy =  12.1928 a.u.   (not converged)
  State 19: excitation energy =  12.1986 a.u.   (not converged)
 ------------------------------------------------------------


--------------------------------------------------------------------------------
                             Excited State Summary
--------------------------------------------------------------------------------

  Excited state  1 (A)                                             [converged]
  ----------------------------------------------------------------------------
  Term symbol:  2 (-) A                                     R^2 =  1.17673e-13

  Total energy:                                           -425.0567490249 a.u.
  Excitation energy:                                             294.958597 eV

  Osc. strength:                                                      0.000070
  Trans. dip. moment [a.u.]:           [  -0.001033,   -0.002748,    0.001013]
  <i|r^2|0> [a.u.]:                    [   0.002313,   -0.027638,   -0.000433]

  V1^2 = 0.9614, V2^2 = 0.0386

  Important amplitudes:
     core i     occ j      vir a      vir b          v   
    ------------------------------------------------------
     5 (A) A              22 (A) A                -0.6725
     5 (A) B              22 (A) B                 0.6398
    ------------------------------------------------------
  ----------------------------------------------------------------------------


  Excited state  2 (A)                                             [converged]
  ----------------------------------------------------------------------------
  Term symbol:  3 (-) A                                     R^2 =  6.76365e-14

  Total energy:                                           -424.9805056310 a.u.
  Excitation energy:                                             297.033285 eV

  Osc. strength:                                                      0.120159
  Trans. dip. moment [a.u.]:           [  -0.043280,   -0.113803,    0.041080]
  <i|r^2|0> [a.u.]:                    [   0.096313,   -1.149907,   -0.018169]

  V1^2 = 0.9575, V2^2 = 0.0425

  Important amplitudes:
     core i     occ j      vir a      vir b          v   
    ------------------------------------------------------
     5 (A) B              22 (A) B                -0.6827
     5 (A) A              22 (A) A                -0.6518
    ------------------------------------------------------
  ----------------------------------------------------------------------------


  Excited state  3 (A)                                             [converged]
  ----------------------------------------------------------------------------
  Term symbol:  4 (-) A                                     R^2 =  4.67402e-12

  Total energy:                                           -424.8947172423 a.u.
  Excitation energy:                                             299.367706 eV

  Osc. strength:                                                      0.000000
  Trans. dip. moment [a.u.]:           [  -0.000023,    0.000089,   -0.000002]
  <i|r^2|0> [a.u.]:                    [  -0.000365,    0.001222,    0.000104]

  V1^2 = 0.8603, V2^2 = 0.1397

  Important amplitudes:
     core i     occ j      vir a      vir b          v   
    ------------------------------------------------------
     5 (A) B              21 (A) B                 0.9257
     5 (A) B   13 (A) A   22 (A) A   21 (A) B     -0.0781
    ------------------------------------------------------
  ----------------------------------------------------------------------------


  Excited state  4 (A)                                             [converged]
  ----------------------------------------------------------------------------
  Term symbol:  5 (-) A                                     R^2 =  3.22268e-13

  Total energy:                                           -424.7290608981 a.u.
  Excitation energy:                                             303.875444 eV

  Osc. strength:                                                      0.000002
  Trans. dip. moment [a.u.]:           [  -0.000239,   -0.000471,    0.000065]
  <i|r^2|0> [a.u.]:                    [   0.000237,   -0.005301,   -0.000320]

  V1^2 = 0.9324, V2^2 = 0.0676

  Important amplitudes:
     core i     occ j      vir a      vir b          v   
    ------------------------------------------------------
     5 (A) A              23 (A) A                -0.6260
     5 (A) B              23 (A) B                 0.6011
    ------------------------------------------------------
  ----------------------------------------------------------------------------


  Excited state  5 (A)                                             [converged]
  ----------------------------------------------------------------------------
  Term symbol:  6 (-) A                                     R^2 =  2.27780e-13

  Total energy:                                           -424.6591855112 a.u.
  Excitation energy:                                             305.776850 eV

  Osc. strength:                                                      0.000002
  Trans. dip. moment [a.u.]:           [  -0.000457,    0.000317,    0.000148]
  <i|r^2|0> [a.u.]:                    [   0.000951,    0.003027,   -0.000197]

  V1^2 = 0.9543, V2^2 = 0.0457

  Important amplitudes:
     core i     occ j      vir a      vir b          v   
    ------------------------------------------------------
     5 (A) A              27 (A) A                -0.4983
     5 (A) B              25 (A) B                 0.4841
    ------------------------------------------------------
  ----------------------------------------------------------------------------


  Excited state  6 (A)                                             [converged]
  ----------------------------------------------------------------------------
  Term symbol:  7 (-) A                                     R^2 =  9.31036e-14

  Total energy:                                           -424.6586320551 a.u.
  Excitation energy:                                             305.791911 eV

  Osc. strength:                                                      0.001791
  Trans. dip. moment [a.u.]:           [  -0.002359,   -0.012427,    0.008893]
  <i|r^2|0> [a.u.]:                    [   0.023771,   -0.096891,    0.014319]

  V1^2 = 0.9204, V2^2 = 0.0796

  Important amplitudes:
     core i     occ j      vir a      vir b          v   
    ------------------------------------------------------
     5 (A) B              23 (A) B                 0.6589
     5 (A) A              23 (A) A                 0.6367
    ------------------------------------------------------
  ----------------------------------------------------------------------------


  Excited state  7 (A)                                             [converged]
  ----------------------------------------------------------------------------
  Term symbol:  8 (-) A                                     R^2 =  1.35672e-13

  Total energy:                                           -424.6496411453 a.u.
  Excitation energy:                                             306.036566 eV

  Osc. strength:                                                      0.000000
  Trans. dip. moment [a.u.]:           [  -0.000079,   -0.000044,   -0.000134]
  <i|r^2|0> [a.u.]:                    [   0.000193,   -0.000422,    0.000071]

  V1^2 = 0.9540, V2^2 = 0.0460

  Important amplitudes:
     core i     occ j      vir a      vir b          v   
    ------------------------------------------------------
     5 (A) A              28 (A) A                 0.4960
     5 (A) B              28 (A) B                -0.4960
    ------------------------------------------------------
  ----------------------------------------------------------------------------


  Excited state  8 (A)                                             [converged]
  ----------------------------------------------------------------------------
  Term symbol:  9 (-) A                                     R^2 =  1.00382e-12

  Total energy:                                           -424.5779441833 a.u.
  Excitation energy:                                             307.987539 eV

  Osc. strength:                                                      0.121884
  Trans. dip. moment [a.u.]:           [  -0.105367,    0.055866,    0.043929]
  <i|r^2|0> [a.u.]:                    [   0.237675,    0.563256,   -0.025919]

  V1^2 = 0.9453, V2^2 = 0.0547

  Important amplitudes:
     core i     occ j      vir a      vir b          v   
    ------------------------------------------------------
     5 (A) B              25 (A) B                -0.5346
     5 (A) A              24 (A) A                -0.5189
    ------------------------------------------------------
  ----------------------------------------------------------------------------


  Excited state  9 (A)                                             [converged]
  ----------------------------------------------------------------------------
  Term symbol:  10 (-) A                                    R^2 =  1.01577e-12

  Total energy:                                           -424.5687887029 a.u.
  Excitation energy:                                             308.236673 eV

  Osc. strength:                                                      0.120650
  Trans. dip. moment [a.u.]:           [   0.056640,    0.019328,    0.111333]
  <i|r^2|0> [a.u.]:                    [  -0.128112,    0.193072,   -0.048024]

  V1^2 = 0.9449, V2^2 = 0.0551

  Important amplitudes:
     core i     occ j      vir a      vir b          v   
    ------------------------------------------------------
     5 (A) A              25 (A) A                 0.5192
     5 (A) B              24 (A) B                -0.5191
    ------------------------------------------------------
  ----------------------------------------------------------------------------


  Excited state 10 (A)                                             [converged]
  ----------------------------------------------------------------------------
  Term symbol:  11 (-) A                                    R^2 =  3.84316e-13

  Total energy:                                           -424.3704366673 a.u.
  Excitation energy:                                             313.634106 eV

  Osc. strength:                                                      0.000000
  Trans. dip. moment [a.u.]:           [  -0.000032,   -0.000090,    0.000032]
  <i|r^2|0> [a.u.]:                    [   0.000075,   -0.000908,   -0.000011]

  V1^2 = 0.9144, V2^2 = 0.0856

  Important amplitudes:
     core i     occ j      vir a      vir b          v   
    ------------------------------------------------------
     5 (A) B              26 (A) B                 0.5946
     5 (A) A              26 (A) A                -0.5872
    ------------------------------------------------------
  ----------------------------------------------------------------------------


  Excited state 11 (A)                                             [converged]
  ----------------------------------------------------------------------------
  Term symbol:  12 (-) A                                    R^2 =  2.12234e-13

  Total energy:                                           -424.3208804384 a.u.
  Excitation energy:                                             314.982600 eV

  Osc. strength:                                                      0.019988
  Trans. dip. moment [a.u.]:           [   0.016932,    0.045010,   -0.016661]
  <i|r^2|0> [a.u.]:                    [  -0.017656,    0.475487,    0.027216]

  V1^2 = 0.9157, V2^2 = 0.0843

  Important amplitudes:
     core i     occ j      vir a      vir b          v   
    ------------------------------------------------------
     5 (A) B              26 (A) B                -0.6338
     5 (A) A              26 (A) A                -0.6308
    ------------------------------------------------------
  ----------------------------------------------------------------------------


  Excited state 12 (A)                                             [converged]
  ----------------------------------------------------------------------------
  Term symbol:  13 (-) A                                    R^2 =  2.59359e-13

  Total energy:                                           -424.3093563778 a.u.
  Excitation energy:                                             315.296185 eV

  Osc. strength:                                                      0.002727
  Trans. dip. moment [a.u.]:           [  -0.015553,    0.008299,    0.006501]
  <i|r^2|0> [a.u.]:                    [   0.034650,    0.083896,   -0.003498]

  V1^2 = 0.8936, V2^2 = 0.1064

  Important amplitudes:
     core i     occ j      vir a      vir b          v   
    ------------------------------------------------------
     5 (A) A              27 (A) A                -0.6016
     5 (A) A              24 (A) A                 0.5814
    ------------------------------------------------------
  ----------------------------------------------------------------------------


  Excited state 13 (A)                                             [converged]
  ----------------------------------------------------------------------------
  Term symbol:  14 (-) A                                    R^2 =  1.46991e-13

  Total energy:                                           -424.3049296438 a.u.
  Excitation energy:                                             315.416643 eV

  Osc. strength:                                                      0.000057
  Trans. dip. moment [a.u.]:           [  -0.001175,   -0.000413,   -0.002401]
  <i|r^2|0> [a.u.]:                    [   0.002757,   -0.004000,    0.001221]

  V1^2 = 0.8936, V2^2 = 0.1064

  Important amplitudes:
     core i     occ j      vir a      vir b          v   
    ------------------------------------------------------
     5 (A) A              25 (A) A                 0.4969
     5 (A) A              28 (A) A                -0.4802
    ------------------------------------------------------
  ----------------------------------------------------------------------------


  Excited state 14 (A)                                             [converged]
  ----------------------------------------------------------------------------
  Term symbol:  15 (-) A                                    R^2 =  1.83406e-13

  Total energy:                                           -424.2931006978 a.u.
  Excitation energy:                                             315.738525 eV

  Osc. strength:                                                      0.024166
  Trans. dip. moment [a.u.]:           [  -0.046360,    0.024518,    0.019330]
  <i|r^2|0> [a.u.]:                    [   0.103340,    0.247550,   -0.010382]

  V1^2 = 0.8951, V2^2 = 0.1049

  Important amplitudes:
     core i     occ j      vir a      vir b          v   
    ------------------------------------------------------
     5 (A) B              27 (A) B                -0.6484
     5 (A) B              25 (A) B                 0.5286
    ------------------------------------------------------
  ----------------------------------------------------------------------------


  Excited state 15 (A)                                             [converged]
  ----------------------------------------------------------------------------
  Term symbol:  16 (-) A                                    R^2 =  1.32395e-12

  Total energy:                                           -424.2911046656 a.u.
  Excitation energy:                                             315.792840 eV

  Osc. strength:                                                      0.027908
  Trans. dip. moment [a.u.]:           [   0.027248,    0.010037,    0.052574]
  <i|r^2|0> [a.u.]:                    [  -0.061569,    0.099980,   -0.024550]

  V1^2 = 0.8971, V2^2 = 0.1029

  Important amplitudes:
     core i     occ j      vir a      vir b          v   
    ------------------------------------------------------
     5 (A) B              28 (A) B                 0.5335
     5 (A) A              28 (A) A                 0.4917
    ------------------------------------------------------
  ----------------------------------------------------------------------------


  Excited state 16 (A)                                             [converged]
  ----------------------------------------------------------------------------
  Term symbol:  17 (-) A                                    R^2 =  3.14724e-12

  Total energy:                                           -424.2174097086 a.u.
  Excitation energy:                                             317.798181 eV

  Osc. strength:                                                      0.000620
  Trans. dip. moment [a.u.]:           [   0.002768,    0.007837,   -0.003258]
  <i|r^2|0> [a.u.]:                    [  -0.008616,    0.076294,   -0.000997]

  V1^2 = 0.8947, V2^2 = 0.1053

  Important amplitudes:
     core i     occ j      vir a      vir b          v   
    ------------------------------------------------------
     5 (A) A              29 (A) A                 0.7336
     5 (A) B              29 (A) B                -0.4653
    ------------------------------------------------------
  ----------------------------------------------------------------------------


  Excited state 17 (A)                                             [converged]
  ----------------------------------------------------------------------------
  Term symbol:  18 (-) A                                    R^2 =  1.12499e-12

  Total energy:                                           -424.1974187418 a.u.
  Excitation energy:                                             318.342163 eV

  Osc. strength:                                                      0.012268
  Trans. dip. moment [a.u.]:           [  -0.012664,   -0.034944,    0.013837]
  <i|r^2|0> [a.u.]:                    [   0.038076,   -0.340952,    0.003739]

  V1^2 = 0.8955, V2^2 = 0.1045

  Important amplitudes:
     core i     occ j      vir a      vir b          v   
    ------------------------------------------------------
     5 (A) B              29 (A) B                -0.7593
     5 (A) A              29 (A) A                -0.4855
    ------------------------------------------------------
  ----------------------------------------------------------------------------


  Excited state 18 (A)                                             [converged]
  ----------------------------------------------------------------------------
  Term symbol:  19 (-) A                                    R^2 =  3.01192e-07

  Total energy:                                           -423.7270368049 a.u.
  Excitation energy:                                             331.141907 eV

  Osc. strength:                                                      0.000020
  Trans. dip. moment [a.u.]:           [   0.001293,   -0.000660,   -0.000549]
  <i|r^2|0> [a.u.]:                    [  -0.007123,   -0.000327,   -0.001817]

  V1^2 = 0.8833, V2^2 = 0.1167

  Important amplitudes:
     core i     occ j      vir a      vir b          v   
    ------------------------------------------------------
     5 (A) A              30 (A) A                 0.9116
     5 (A) A              39 (A) A                -0.1525
    ------------------------------------------------------
  ----------------------------------------------------------------------------


  Excited state 19 (A)                                         [not converged]
  ----------------------------------------------------------------------------
  Term symbol:  20 (-) A                                    R^2 =  1.06003e-04

  Total energy:                                           -423.7035137345 a.u.
  Excitation energy:                                             331.782002 eV


  V1^2 = 0.8846, V2^2 = 0.1154

  Important amplitudes:
     core i     occ j      vir a      vir b          v   
    ------------------------------------------------------
     5 (A) A              32 (A) A                -0.8992
     5 (A) A              40 (A) A                 0.1512
    ------------------------------------------------------
  ----------------------------------------------------------------------------


  Excited state 20 (A)                                         [not converged]
  ----------------------------------------------------------------------------
  Term symbol:  21 (-) A                                    R^2 =  1.18585e-04

  Total energy:                                           -423.6976380615 a.u.
  Excitation energy:                                             331.941887 eV


  V1^2 = 0.8849, V2^2 = 0.1151

  Important amplitudes:
     core i     occ j      vir a      vir b          v   
    ------------------------------------------------------
     5 (A) B              31 (A) B                 0.9047
     5 (A) B              40 (A) B                 0.1555
    ------------------------------------------------------
  ----------------------------------------------------------------------------


--------------------------------------------------------------------------------
  Time of ADC calculation:  CPU 1526.10 s  wall 1574.57 s
================================================================================
 
 --------------------------------------------------------------
 
                    Orbital Energies (a.u.)
 --------------------------------------------------------------
 
 Alpha MOs
 -- Occupied --
-26.739 -26.725 -26.723 -26.723 -11.941  -2.164  -2.054  -2.051
 -1.998  -1.316  -1.231  -1.230  -1.209  -1.162  -1.074  -1.058
 -1.057  -1.031  -1.016  -1.010  -1.006
 -- Virtual --
 -0.136   0.071   0.224   0.232   0.398   0.426   0.436   0.462
  0.952   0.955   0.986   1.019   1.021   1.061   1.256   1.256
  1.262   1.286   1.290   1.313   1.319   1.341   1.474   1.592
  1.602   1.616   1.707   1.713   1.780   1.788   1.792   1.953
  1.955   1.985   1.986   2.035   2.054   2.059   2.066   2.154
  2.435   2.704   2.713   2.726   3.024   3.036   3.282   3.286
  3.308   3.856   4.386   4.992   5.029   6.523
 
 Beta MOs
 -- Occupied --
-26.725 -26.723 -26.723 -26.689 -11.941  -2.161  -2.055  -2.050
 -1.809  -1.314  -1.230  -1.229  -1.198  -1.058  -1.057  -1.055
 -1.038  -1.005  -0.976  -0.968
 -- Virtual --
 -0.232  -0.134   0.075   0.232   0.236   0.399   0.431   0.437
  0.467   0.968   0.996   1.019   1.020   1.044   1.078   1.262
  1.264   1.268   1.290   1.291   1.319   1.355   1.423   1.477
  1.618   1.621   1.622   1.741   1.741   1.791   1.820   1.824
  1.953   1.956   2.003   2.005   2.059   2.060   2.072   2.091
  2.160   2.440   2.705   2.714   2.742   3.025   3.036   3.282
  3.287   3.309   3.886   4.388   4.993   5.029   6.525
 --------------------------------------------------------------
 
          Ground-State Mulliken Net Atomic Charges

     Atom                 Charge (a.u.)    Spin (a.u.)
  --------------------------------------------------------
      1 C                     1.318478      -0.010200
      2 F                    -0.136280       0.001999
      3 F                    -0.135308       0.001644
      4 F                     0.072831       1.009510
      5 F                    -0.119720      -0.002954
  --------------------------------------------------------
  Sum of atomic charges =     1.000000
  Sum of spin   charges =     1.000000

 -----------------------------------------------------------------
                    Cartesian Multipole Moments
 -----------------------------------------------------------------
    Charge (ESU x 10^10)
                 4.8032
    Dipole Moment (Debye)
         X      -3.1865      Y      11.8263      Z      -0.2574
       Tot      12.2508
    Quadrupole Moments (Debye-Ang)
        XX     -18.4548     XY      -7.3274     YY       9.9814
        XZ      -0.3298     YZ      -1.2995     ZZ     -20.9707
    Octopole Moments (Debye-Ang^2)
       XXX      41.2216    XXY     -44.7794    XYY      -3.3452
       YYY     -65.4371    XXZ       1.2518    XYZ      -0.2278
       YYZ      -4.2917    XZZ      13.7337    YZZ     -49.4784
       ZZZ       0.1165
    Hexadecapole Moments (Debye-Ang^3)
      XXXX    -125.8293   XXXY      98.0511   XXYY    -142.4267
      XYYY      56.2042   YYYY    -553.3969   XXXZ      -1.7172
      XXYZ       2.7628   XYYZ       0.0323   YYYZ     -10.5402
      XXZZ     -31.8205   XYZZ      31.9170   YYZZ    -141.3414
      XZZZ       0.8087   YZZZ       2.7863   ZZZZ     -69.5247
 -----------------------------------------------------------------
Archival summary:
1\1\tp-linux1\SP\HF\6-31G*\41(1+,2)\thomas\WedMar2214:55:562017WedMar2214:55:562017\0\\#,HF,6-31G*,\\1,2\C\F,1,1.21063\F,1,1.21925,2,120.13\F,1,1.2198,2,120.09,3,174.187,0\F,1,1.8089,2,92.601,3,-92.9474,0\\HF=-435.153971\\@

 Total job time:  1587.46s(wall), 1535.86s(cpu) 
 Wed Mar 22 14:55:56 2017

        *************************************************************
        *                                                           *
        *  Thank you very much for using Q-Chem.  Have a nice day.  *
        *                                                           *
        *************************************************************


0 sent ACK to 0 
now end server 0 ... 
cleanup process ... done
