
Running Job 1 of 1 ddtraj1t46.inp
qchem ddtraj1t46.inp_17569.0 /scratch/qchem/qchem17569/ 1
/mnt/software/qchem/bin/mpi/mpirun_qchem -machinefile /mnt/software/qchem/bin/mpi/machines -np 1 /mnt/software/qchem/exe/qcprog.exe ddtraj1t46.inp_17569.0 /scratch/qchem/qchem17569/

Process 0 of 1 is on tp-linux1 - thread support 0
initial socket setup ...start
initial socket setup ...done 
now start server 0 ... 

cmd = ssh tp-linux1 /mnt/software/qchem/bin/get_hostid 2030836940 > /scratch/qchem/qchem17569/lic.dat
                  Welcome to Q-Chem
     A Quantum Leap Into The Future Of Chemistry


 Q-Chem 4.3, Q-Chem, Inc., Pleasanton, CA (2015)

 Y. Shao,  Z. Gan,  E. Epifanovsky,  A. T. B. Gilbert,  M. Wormit,  
 J. Kussmann,  A. W. Lange,  A. Behn,  J. Deng,  X. Feng,  D. Ghosh,  
 M. Goldey,  P. R. Horn,  L. D. Jacobson,  I. Kaliman,  R. Z. Khaliullin,  
 T. Kus,  A. Landau,  J. Liu,  E. I. Proynov,  Y. M. Rhee,  R. M. Richard,  
 M. A. Rohrdanz,  R. P. Steele,  E. J. Sundstrom,  H. L. Woodcock III,  
 P. M. Zimmerman,  D. Zuev,  B. Albrecht,  E. Alguire,  B. Austin,  
 S. A. Baeppler,  G. J. O. Beran,  Y. A. Bernard,  E. Berquist,  
 K. Brandhorst,  K. B. Bravaya,  S. T. Brown,  D. Casanova,  C.-M. Chang,  
 Y. Chen,  S. H. Chien,  K. D. Closser,  D. L. Crittenden,  M. Diedenhofen,  
 R. A. DiStasio Jr.,  H. Do,  A. D. Dutoi,  R. G. Edgar,  P.-T. Fang,  
 S. Fatehi,  Q. Feng,  L. Fusti-Molnar,  A. Ghysels,  
 A. Golubeva-Zadorozhnaya,  J. Gomes,  A. Gunina,  M. W. D. Hanson-Heine,  
 P. H. P. Harbach,  A. W. Hauser,  E. G. Hohenstein,  Z. C. Holden,  K. Hui,  
 T.-C. Jagau,  H. Ji,  B. Kaduk,  K. Khistyaev,  Jaehoon Kim,  Jihan Kim,  
 R. A. King,  P. Klunzinger,  D. Kosenkov,  T. Kowalczyk,  C. M. Krauter,  
 K. U. Lao,  A. Laurent,  K. V. Lawler,  S. Lehtola,  S. V. Levchenko,  
 C. Y. Lin,  Y.-S. Lin,  F. Liu,  E. Livshits,  R. C. Lochan,  A. Luenser,  
 P. Manohar,  S. F. Manzer,  S.-P. Mao,  N. Mardirossian,  A. V. Marenich,  
 L. A. Martinez-Martinez,  S. A. Maurer,  N. J. Mayhall,  K. Nanda,  
 C. M. Oana,  R. Olivares-Amaya,  D. P. O'Neill,  J. A. Parkhill,  
 T. M. Perrine,  R. Peverati,  P. A. Pieniazek,  F. Plasser,  A. Prociuk,  
 D. R. Rehn,  E. Rosta,  N. J. Russ,  N. Sergueev,  S. M. Sharada,  
 S. Sharma,  D. W. Small,  A. Sodt,  T. Stauch,  T. Stein,  D. Stuck,  
 Y.-C. Su,  A. J. W. Thom,  T. Tsuchimochi,  L. Vogt,  O. Vydrov,  T. Wang,  
 M. A. Watson,  J. Wenzel,  A. White,  C. F. Williams,  V. Vanovschi,  
 S. Yeganeh,  S. R. Yost,  Z.-Q. You,  I. Y. Zhang,  X. Zhang,  Y. Zhao,  
 B. R. Brooks,  G. K. L. Chan,  D. M. Chipman,  C. J. Cramer,  
 W. A. Goddard III,  M. S. Gordon,  W. J. Hehre,  A. Klamt,  
 H. F. Schaefer III,  M. W. Schmidt,  C. D. Sherrill,  D. G. Truhlar,  
 A. Warshel,  X. Xu,  A. Aspuru-Guzik,  R. Baer,  A. T. Bell,  N. A. Besley,  
 J.-D. Chai,  A. Dreuw,  B. D. Dunietz,  T. R. Furlani,  S. R. Gwaltney,  
 C.-P. Hsu,  Y. Jung,  J. Kong,  D. S. Lambrecht,  W. Liang,  C. Ochsenfeld,  
 V. A. Rassolov,  L. V. Slipchenko,  J. E. Subotnik,  T. Van Voorhis,  
 J. M. Herbert,  A. I. Krylov,  P. M. W. Gill,  M. Head-Gordon

 Contributors to earlier versions of Q-Chem not listed above: 
 R. D. Adamson,  J. Baker,  E. F. C. Byrd,  A. K. Chakraborty,  C.-L. Cheng,  
 H. Dachsel,  R. J. Doerksen,  G. Hawkins,  A. Heyden,  S. Hirata,  
 G. Kedziora,  F. J. Keil,  C. Kelley,  P. P. Korambath,  W. Kurlancheek,  
 A. M. Lee,  M. S. Lee,  D. Liotard,  I. Lotan,  P. E. Maslen,  N. Nair,  
 D. Neuhauser,  R. Olson,  B. Peters,  J. Ritchie,  N. E. Schultz,  
 N. Shenvi,  A. C. Simmonett,  K. S. Thanthiriwatte,  Q. Wu,  W. Zhang

 Please cite Q-Chem as follows:
 Y. Shao et al., Mol. Phys. 113, 184-215 (2015)
 DOI: 10.1080/00268976.2014.952696

 Q-Chem 4.3.0 for Intel X86 Linux

 Parts of Q-Chem use Armadillo 5.200.1 (Boston Tea Smuggler).
 http://arma.sourceforge.net/

 Q-Chem begins on Wed Mar 22 18:59:55 2017  

Host: 
0

     Scratch files written to /scratch/qchem/qchem17569//
 Nov1815 1189b_ 19540  19532 5443   
 Parallel job on  1  processors
Processing $rem in /mnt/software/qchem/config/preferences.
 MEM_TOTAL  2000 

Checking the input file for inconsistencies... 	...done.

--------------------------------------------------------------
User input:
--------------------------------------------------------------
$comment
XAS calculation for valence excited states for CF4+ using cvs-adc(2) + 6-31G* basis set
job 1 - determination of HF orbitals
$end

$molecule
1 2
6  -0.500487  2.905256  -0.225352
9  0.67988  2.611848  -0.11141
9  -1.036396  3.547582  0.664744
9  -1.554398  0.00934  0.913324
9  -1.012038  2.878996  -1.324318
$end

$comment
cvs-adc(2) calculation
$end

$rem
mem_total 3000
mem_static 1500
sym_ignore true
method cvs-adc(2)
basis 6-31G*
ee_singlets 20
cc_rest_occ 5                  !only excitations from the lowest N orbitals
unrestricted  true
max_scf_cycles 200
SCF_ALGORITHM = DIIS_GDM
SCF_CONVERGENCE = 7
THRESH = 10
$end
--------------------------------------------------------------
 ----------------------------------------------------------------
             Standard Nuclear Orientation (Angstroms)
    I     Atom           X                Y                Z
 ----------------------------------------------------------------
    1      C      -0.5004870000     2.9052560000    -0.2253520000
    2      F       0.6798800000     2.6118480000    -0.1114100000
    3      F      -1.0363960000     3.5475820000     0.6647440000
    4      F      -1.5543980000     0.0093400000     0.9133240000
    5      F      -1.0120380000     2.8789960000    -1.3243180000
 ----------------------------------------------------------------
 Nuclear Repulsion Energy =   175.8602267957 hartrees
 There are       21 alpha and       20 beta electrons
 Requested basis set is 6-31G(d)
 There are 20 shells and 75 basis functions

 Total QAlloc Memory Limit   3000 MB
 Mega-Array Size      1467 MB
 MEM_STATIC part      1500 MB

                       Distance Matrix (Angstroms)
             C (  1)   F (  2)   F (  3)   F (  4)
   F (  2)  1.221613
   F (  3)  1.221496  2.103240
   F (  4)  3.285368  3.579822  3.584588
   F (  5)  1.212477  2.098833  2.098563  3.679147
 
 tim1(1): 
  0.000000000000000E+000
 tim1(2): 
  0.000000000000000E+000
 A cutoff of  1.0D-10 yielded    183 shell pairs
 There are      2806 function pairs
 
 -------------------------------------------------------
 OpenMP Integral Computing Module                       
 Release: version 1.0, May 2013, Q-Chem Inc. Pittsburgh 
 -------------------------------------------------------
 Integral Job Info:
 Integral job number is                      11
 Integral operator is                         1
 short-range coefficients                     0
 long-range coefficients              100000000
 Omega coefficients                           0
 if combine SR and LR in K                    0
 Integral screening is                        0
 Integral computing path is                   2
 max size of driver memory is            800000
 size of driver memory is                593474
 size of scratch memory is              2260544
 max col of scratch BK array               1296
 max len of scratch array in speh3          155
 max len of scratch index in speh4           18
 max int batch size is                      520
 min int batch size is                       52
 fixed nKL is                                52
 max L of basis functions is                  2
 order of int derivative is                   0
 number of shells is                         20
 number of basis is                          75
 number of cartesian basis is                75
 number of contracted shell pairs           183
 number of primitive shell pairs            932
 maxK2 (contraction) of shell pair           36
 max number of K2 of shell pair               1
 max number of CS2 of shell pair             32
 max number of PS2 of shell pair            192
 mem total for path MDJ                   17476
 -------------------------------------------------------
 Smallest overlap matrix eigenvalue = 4.03E-03

 Scale SEOQF with 1.000000e-01/1.000000e-01/1.000000e+00

 Standard Electronic Orientation quadrupole field applied
 Nucleus-field energy     =    -0.0000000066 hartrees
 Guess from superposition of atomic densities
 Warning:  Energy on first SCF cycle will be non-variational
 An unrestricted Hartree-Fock SCF calculation will be
 performed using Pulay DIIS + Geometric Direct Minimization
 SCF converges when RMS gradient is below 1.0E-07
 ---------------------------------------
  Cycle       Energy         DIIS Error
 ---------------------------------------
    1    -436.4081189429      9.23E-02
    2    -434.9872540315      1.77E-02
    3    -435.1385075848      8.19E-03 Done DIIS. Switching to GDM
    4    -435.1691208570      9.44E-03 Normal BFGS step
    5    -435.1700898606      8.80E-03 Normal BFGS step
    6    -435.1704265741      1.64E-03 Normal BFGS step
    7    -435.1704485719      1.56E-03 Normal BFGS step
    8    -435.1704540650      1.55E-03 Normal BFGS step
    9    -435.1704600606      1.52E-03 Normal BFGS step
   10    -435.1704735569      1.44E-03 Normal BFGS step
   11    -435.1705010628      1.83E-03 Normal BFGS step
   12    -435.1705509789      2.46E-03 Normal BFGS step
   13    -435.1706070702      2.15E-03 Normal BFGS step
   14    -435.1706385381      9.66E-04 Normal BFGS step
   15    -435.1706448518      1.88E-04 Normal BFGS step
   16    -435.1706451923      1.07E-04 Normal BFGS step
   17    -435.1706452425      1.95E-05 Normal BFGS step
   18    -435.1706452459      4.64E-06 Normal BFGS step
   19    -435.1706452460      4.64E-06 Normal BFGS step
   20    -435.1706452460      4.64E-06 Normal BFGS step
   21    -435.1706452461      4.64E-06 Normal BFGS step
   22    -435.1706452462      4.72E-06 Normal BFGS step
   23    -435.1706452466      9.27E-06 Normal BFGS step
   24    -435.1706452474      1.64E-05 Normal BFGS step
   25    -435.1706452492      2.65E-05 Normal BFGS step
   26    -435.1706452537      4.13E-05 Normal BFGS step
   27    -435.1706452649      6.26E-05 Normal BFGS step
   28    -435.1706452934      9.40E-05 Normal BFGS step
   29    -435.1706453606      1.40E-04 Normal BFGS step
   30    -435.1706454379      1.91E-04 Normal BFGS step
   31    -435.1706456249      1.55E-04 Normal BFGS step
   32    -435.1706458334      4.62E-04 Normal BFGS step
   33    -435.1706453866      1.49E-03 Line search: overstep
   34    -435.1706461609      1.51E-04 Normal BFGS step
   35    -435.1706462593      9.86E-05 Normal BFGS step
   36    -435.1706465827      2.48E-04 Normal BFGS step
   37    -435.1706467563      1.16E-04 Normal BFGS step
   38    -435.1706467303      1.76E-03 Line search: overstep
   39    -435.1706469178      1.89E-04 Normal BFGS step
   40    -435.1706471505      2.46E-04 Normal BFGS step
   41    -435.1706472611      1.34E-04 Normal BFGS step
   42    -435.1706474403      2.18E-04 Normal BFGS step
   43    -435.1706475441      1.14E-04 Normal BFGS step
   44    -435.1706477383      1.90E-04 Normal BFGS step
   45    -435.1706480347      9.52E-05 Normal BFGS step
   46    -435.1706467029      3.72E-03 Line search: overstep
   47    -435.1706481592      1.50E-04 Dog-leg BFGS step
   48    -435.1706482265      5.99E-04 Normal BFGS step
   49    -435.1706487068      2.01E-04 Normal BFGS step
   50    -435.1706490158      7.27E-05 Normal BFGS step
   51    -435.1706474126      4.00E-03 Line search: overstep
   52    -435.1706491928      1.43E-04 Normal BFGS step
   53    -435.1706492741      4.45E-04 Normal BFGS step
   54    -435.1706495571      1.26E-04 Normal BFGS step
   55    -435.1706497118      8.11E-05 Normal BFGS step
   56    -435.1706499251      2.03E-04 Normal BFGS step
   57    -435.1706499804      5.37E-05 Normal BFGS step
   58    -435.1706500055      4.93E-05 Normal BFGS step
   59    -435.1706500332      6.25E-05 Normal BFGS step
   60    -435.1706500692      7.85E-05 Normal BFGS step
   61    -435.1706501829      1.25E-04 Normal BFGS step
   62    -435.1706503944      1.90E-04 Normal BFGS step
   63    -435.1706507960      1.51E-04 Normal BFGS step
   64    -435.1706497399      3.20E-03 Line search: overstep
   65    -435.1706508745      1.86E-04 Normal BFGS step
   66    -435.1706511482      3.27E-04 Normal BFGS step
   67    -435.1706511861      2.03E-04 Normal BFGS step
   68    -435.1706513421      4.75E-05 Normal BFGS step
   69    -435.1706513803      1.15E-04 Normal BFGS step
   70    -435.1706514133      1.14E-04 Normal BFGS step
   71    -435.1706515417      1.01E-04 Normal BFGS step
   72    -435.1706516312      7.37E-05 Normal BFGS step
   73    -435.1706516563      2.69E-04 Normal BFGS step
   74    -435.1706518322      7.60E-05 Normal BFGS step
   75    -435.1706519102      9.37E-05 Normal BFGS step
   76    -435.1706519448      6.18E-05 Normal BFGS step
   77    -435.1706519867      1.13E-04 Normal BFGS step
   78    -435.1706520123      3.15E-05 Normal BFGS step
   79    -435.1706520436      2.84E-05 Normal BFGS step
   80    -435.1706519787      9.47E-04 Line search: overstep
   81    -435.1706520650      5.70E-05 Normal BFGS step
   82    -435.1706520865      8.46E-05 Normal BFGS step
   83    -435.1706521018      2.79E-05 Normal BFGS step
   84    -435.1706521204      3.03E-05 Normal BFGS step
   85    -435.1706521348      4.96E-05 Normal BFGS step
   86    -435.1706521423      7.66E-06 Normal BFGS step
   87    -435.1706521490      2.13E-05 Normal BFGS step
   88    -435.1706521520      1.67E-05 Normal BFGS step
   89    -435.1706521540      6.38E-06 Normal BFGS step
   90    -435.1706521547      1.48E-05 Normal BFGS step
   91    -435.1706521552      3.28E-06 Normal BFGS step
   92    -435.1706521553      1.51E-06 Normal BFGS step
   93    -435.1706521553      1.29E-06 Normal BFGS step
   94    -435.1706521554      7.01E-07 Normal BFGS step
   95    -435.1706521554      5.10E-07 Normal BFGS step
   96    -435.1706521554      1.78E-07 Normal BFGS step
   97    -435.1706521554      4.25E-08 Convergence criterion met
 ---------------------------------------
 <S^2> = 0.7528
 SCF time:  CPU 14.59 s  wall 20.50 s
 SCF   energy in the final basis set = -435.1706521554
 Total energy in the final basis set = -435.1706521554
================================================================================
|                                                                              |
|                                 A D C  M A N                                 |
|                                                                              |
 ------------------------------------------------------------------------------ 
|                                                                              |
| Components:                                                                  |
|                                                                              |
| - libvmm - 1.2-release                                                       |
|   Authors:                                                                   |
|   Evgeny Epifanovsky, Ilya Kaliman                                           |
|                                                                              |
| - libtensor - 2.4-trunk                                                      |
|   Authors:                                                                   |
|   Evgeny Epifanovsky, Michael Wormit, Dmitry Zuev, Sam Manzer                |
|                                                                              |
| - libwfa - 1.1-beta                                                          |
|   Authors:                                                                   |
|   Felix Plasser, Stefanie Baeppler, Benjamin Thomitzni, Michael Wormit       |
|                                                                              |
| - libadc - 1.0-beta                                                          |
|   Authors:                                                                   |
|   Michael Wormit, Philipp H. P. Harbach, Caroline Krauter, Dirk Rehn,        |
|   Matthias Schneider, Jan Wenzel                                             |
|                                                                              |
| - adcman - 2.4-beta                                                          |
|   Authors:                                                                   |
|   Michael Wormit, Philipp H. P. Harbach, Caroline Krauter, Dirk Rehn,        |
|   Jan Wenzel, Andreas Dreuw                                                  |
|                                                                              |
| Authors of earlier versions of ADCMAN:                                       |
| Andreas Dreuw, Jan Hendrik Starcke, Dirk Rehn, Michael Wormit                |
|                                                                              |
================================================================================

 
 Alpha MOs, Unrestricted
 -- Occupied --                  
-26.751 -26.747 -26.747 -26.573 -11.954  -2.174  -2.069  -2.064
  1 A     2 A     3 A     4 A     5 A     6 A     7 A     8 A                  
 -1.824  -1.326  -1.244  -1.243  -1.191  -1.074  -1.074  -1.048
  9 A    10 A    11 A    12 A    13 A    14 A    15 A    16 A                  
 -1.045  -1.023  -0.992  -0.886  -0.884
 17 A    18 A    19 A    20 A    21 A                                          
 -- Virtual --                   
 -0.211   0.019   0.196   0.198   0.330   0.406   0.411   0.421
 22 A    23 A    24 A    25 A    26 A    27 A    28 A    29 A                  
  0.920   1.007   1.011   1.011   1.117   1.119   1.199   1.233
 30 A    31 A    32 A    33 A    34 A    35 A    36 A    37 A                  
  1.263   1.273   1.275   1.286   1.287   1.306   1.381   1.438
 38 A    39 A    40 A    41 A    42 A    43 A    44 A    45 A                  
  1.640   1.640   1.745   1.747   1.779   1.862   1.863   1.880
 46 A    47 A    48 A    49 A    50 A    51 A    52 A    53 A                  
  1.893   1.899   1.919   1.954   1.956   1.957   1.966   2.038
 54 A    55 A    56 A    57 A    58 A    59 A    60 A    61 A                  
  2.056   2.340   2.661   2.669   2.984   2.995   3.207   3.212
 62 A    63 A    64 A    65 A    66 A    67 A    68 A    69 A                  
  3.213   3.568   4.190   4.657   4.784   4.807
 70 A    71 A    72 A    73 A    74 A    75 A                                  
 
 Beta MOs, Unrestricted
 -- Occupied --                  
-26.751 -26.747 -26.747 -26.525 -11.954  -2.174  -2.069  -2.064
  1 A     2 A     3 A     4 A     5 A     6 A     7 A     8 A                  
 -1.632  -1.326  -1.244  -1.243  -1.191  -1.074  -1.074  -1.048
  9 A    10 A    11 A    12 A    13 A    14 A    15 A    16 A                  
 -1.045  -1.023  -0.833  -0.832
 17 A    18 A    19 A    20 A                                                  
 -- Virtual --                   
 -0.211  -0.073   0.020   0.196   0.198   0.331   0.406   0.411
 21 A    22 A    23 A    24 A    25 A    26 A    27 A    28 A                  
  0.422   0.949   1.007   1.011   1.011   1.117   1.119   1.251
 29 A    30 A    31 A    32 A    33 A    34 A    35 A    36 A                  
  1.270   1.272   1.286   1.286   1.293   1.306   1.383   1.421
 37 A    38 A    39 A    40 A    41 A    42 A    43 A    44 A                  
  1.445   1.640   1.641   1.746   1.747   1.779   1.881   1.884
 45 A    46 A    47 A    48 A    49 A    50 A    51 A    52 A                  
  1.887   1.956   1.956   1.961   1.968   1.981   1.987   1.998
 53 A    54 A    55 A    56 A    57 A    58 A    59 A    60 A                  
  2.038   2.056   2.341   2.661   2.669   2.984   2.995   3.207
 61 A    62 A    63 A    64 A    65 A    66 A    67 A    68 A                  
  3.212   3.213   3.609   4.191   4.657   4.785   4.807
 69 A    70 A    71 A    72 A    73 A    74 A    75 A                          
 

--------------------------------------------------------------------------------
                                   HF Summary                                   
--------------------------------------------------------------------------------
  Energy:                                                 -435.1706521554 a.u.
  Dip. moment [a.u.]:                  [ -54.386998,  181.457024,    0.259482]
  Total dipole [Debye]:                                             481.489429
  <r^2> [a.u.]:                        [ 179.453249, 1056.904183,  114.169307]
  Total <r^2> [a.u.]:                                              1350.526739
--------------------------------------------------------------------------------

--------------------------------------------------------------------------------
                                 MP(2) Summary                                  
--------------------------------------------------------------------------------
  Energy contribution:                                      -0.7407113397 a.u.
  Total energy:                                           -435.9113634950 a.u.
  Dip. moment [a.u.]:                  [ -54.412313,  181.395542,    0.277648]
  Total dipole [Debye]:                                             481.358286
  <r^2> [a.u.]:                        [ 179.257447, 1056.348160,  113.894246]
  Total <r^2> [a.u.]:                                              1349.499853
--------------------------------------------------------------------------------
  Starting Davidson ... 
--------------------------------------------------------------------------------
   It NVec Conv  Avg. Norm  Max. Norm  Conv. states           Remark
--------------------------------------------------------------------------------
        20    0  2.082e-01  1.143e+00 10.9698 n n n n n n n n Guess.
    1   40    0  6.701e-02  1.001e+00 10.8118 n n n n n n n n 
    2   60    0  4.200e-02  8.262e-01 10.8104 n n n n n n n n 
    3   80    0  6.655e-03  1.211e-01 10.8103 n n n n n n n n 
    4  100    0  1.999e-03  2.476e-02 10.8103 n n n n n n n n 
    5   40    0  1.070e-03  1.382e-02 10.8103 n n n n n n n n Subspace collapsed.
    6   60    0  1.496e-03  1.856e-02 10.8103 n n n n n n n n 
    7   80    0  1.553e-03  1.964e-02 10.8103 n n n n n n n n 
    8  100    3  2.351e-03  3.295e-02 10.8103 y y n n n n y n 
    9   40    7  1.039e-03  1.712e-02 10.8103 y y n n y y y y Subspace collapsed.
   10   60    8  9.164e-04  1.579e-02 10.8103 y y n y y y y y 
   11   80   10  5.820e-04  9.495e-03 10.8103 y y y y y y y y 
   12  100   16  6.421e-04  1.004e-02 10.8103 y y y y y y y y 
   13   40   17  4.814e-04  8.585e-03 10.8103 y y y y y y y y Subspace collapsed.
   14   60   17  7.083e-04  1.280e-02 10.8103 y y y y y y y y 
   15   80   17  7.818e-04  1.443e-02 10.8103 y y y y y y y y 
   16  100   17  1.262e-03  2.429e-02 10.8103 y y y y y y y y 
   17   39   17  6.579e-04  1.260e-02 10.8103 y y y y y y y y Subspace collapsed.
   18   57   17  5.789e-04  1.109e-02 10.8103 y y y y y y y y 
   19   58   17  5.751e-04  1.101e-02 10.8103 y y y y y y y y 
   20   59   17  5.721e-04  1.094e-02 10.8103 y y y y y y y y 
   21   60   17  5.728e-04  1.095e-02 10.8103 y y y y y y y y 
   22   61   17  5.731e-04  1.096e-02 10.8103 y y y y y y y y 
   23   75   17  3.386e-04  6.252e-03 10.8103 y y y y y y y y 
   24   87   17  3.348e-04  6.157e-03 10.8103 y y y y y y y y 
   25   98   17  7.715e-04  1.511e-02 10.8103 y y y y y y y y 
   26  100   17  7.708e-04  1.510e-02 10.8103 y y y y y y y y 
   27   31   17  3.614e-04  7.011e-03 10.8103 y y y y y y y y Subspace collapsed.
   28   32   17  3.617e-04  7.018e-03 10.8103 y y y y y y y y 
   29   33   17  3.610e-04  7.008e-03 10.8103 y y y y y y y y 
   30   34   17  3.615e-04  7.016e-03 10.8103 y y y y y y y y 
   31   44   17  2.817e-04  5.392e-03 10.8103 y y y y y y y y 
   32   44   17  2.817e-04  5.392e-03 10.8103 y y y y y y y y 
   33   63   17  3.399e-04  6.644e-03 10.8103 y y y y y y y y 
   34   72   17  3.927e-04  7.687e-03 10.8103 y y y y y y y y 
   35   80   17  5.402e-04  1.068e-02 10.8103 y y y y y y y y 
   36   80   17  5.402e-04  1.068e-02 10.8103 y y y y y y y y 
   37   93   17  6.785e-04  1.346e-02 10.8103 y y y y y y y y 
   38   93   17  6.785e-04  1.346e-02 10.8103 y y y y y y y y 
   39   93   17  6.785e-04  1.346e-02 10.8103 y y y y y y y y 
   40  100   17  6.806e-04  1.350e-02 10.8103 y y y y y y y y 
   41   20   17  6.806e-04  1.350e-02 10.8103 y y y y y y y y Subspace collapsed.
   42   20   17  6.806e-04  1.350e-02 10.8103 y y y y y y y y 
   43   20   17  6.806e-04  1.350e-02 10.8103 y y y y y y y y 
   44   40   17  3.056e-04  6.059e-03 10.8103 y y y y y y y y 
   45   43   17  2.200e-04  4.329e-03 10.8103 y y y y y y y y 
   46   46   17  1.670e-04  3.289e-03 10.8103 y y y y y y y y 
   47   49   17  1.525e-04  3.008e-03 10.8103 y y y y y y y y 
   48   52   17  1.711e-04  3.394e-03 10.8103 y y y y y y y y 
   49   55   17  1.615e-04  3.201e-03 10.8103 y y y y y y y y 
   50   58   17  1.406e-04  2.779e-03 10.8103 y y y y y y y y 
   51   61   17  1.111e-04  2.194e-03 10.8103 y y y y y y y y 
   52   64   17  1.523e-04  3.029e-03 10.8103 y y y y y y y y 
   53   67   17  2.114e-04  4.212e-03 10.8103 y y y y y y y y 
   54   70   17  1.896e-04  3.775e-03 10.8103 y y y y y y y y 
   55   73   17  1.043e-04  2.073e-03 10.8103 y y y y y y y y 
   56   76   17  5.979e-05  1.186e-03 10.8103 y y y y y y y y 
   57   79   17  2.934e-05  5.819e-04 10.8103 y y y y y y y y 
   58   82   17  1.666e-05  3.299e-04 10.8103 y y y y y y y y 
   59   85   17  1.029e-05  2.043e-04 10.8103 y y y y y y y y 
--------------------------------------------------------------------------------
  Davidson Summary: 
 ------------------------------------------------------------
  State  0: excitation energy =  10.8103 a.u.   (converged)
  State  1: excitation energy =  10.8806 a.u.   (converged)
  State  2: excitation energy =  11.1486 a.u.   (converged)
  State  3: excitation energy =  11.2068 a.u.   (converged)
  State  4: excitation energy =  11.2277 a.u.   (converged)
  State  5: excitation energy =  11.2353 a.u.   (converged)
  State  6: excitation energy =  11.2845 a.u.   (converged)
  State  7: excitation energy =  11.3075 a.u.   (converged)
  State  8: excitation energy =  11.3147 a.u.   (converged)
  State  9: excitation energy =  11.5248 a.u.   (converged)
  State 10: excitation energy =  11.5385 a.u.   (converged)
  State 11: excitation energy =  11.5560 a.u.   (converged)
  State 12: excitation energy =  11.5758 a.u.   (converged)
  State 13: excitation energy =  11.5768 a.u.   (converged)
  State 14: excitation energy =  11.5902 a.u.   (converged)
  State 15: excitation energy =  11.5917 a.u.   (converged)
  State 16: excitation energy =  11.5953 a.u.   (converged)
  State 17: excitation energy =  12.2252 a.u.   (not converged)
  State 18: excitation energy =  12.2288 a.u.   (not converged)
  State 19: excitation energy =  12.2317 a.u.   (not converged)
 ------------------------------------------------------------


--------------------------------------------------------------------------------
                             Excited State Summary
--------------------------------------------------------------------------------

  Excited state  1 (A)                                             [converged]
  ----------------------------------------------------------------------------
  Term symbol:  2 (-) A                                     R^2 =  1.97752e-14

  Total energy:                                           -425.1010379528 a.u.
  Excitation energy:                                             294.163918 eV

  Osc. strength:                                                      0.000000
  Trans. dip. moment [a.u.]:           [   0.000004,    0.000011,   -0.000003]
  <i|r^2|0> [a.u.]:                    [  -0.000008,    0.000115,    0.000003]

  V1^2 = 0.9578, V2^2 = 0.0422

  Important amplitudes:
     core i     occ j      vir a      vir b          v   
    ------------------------------------------------------
     5 (A) A              22 (A) A                 0.6515
     5 (A) B              21 (A) B                -0.6514
    ------------------------------------------------------
  ----------------------------------------------------------------------------


  Excited state  2 (A)                                             [converged]
  ----------------------------------------------------------------------------
  Term symbol:  3 (-) A                                     R^2 =  3.12115e-14

  Total energy:                                           -425.0307187962 a.u.
  Excitation energy:                                             296.077400 eV

  Osc. strength:                                                      0.105357
  Trans. dip. moment [a.u.]:           [  -0.042321,   -0.107102,    0.035533]
  <i|r^2|0> [a.u.]:                    [   0.084479,   -1.169242,   -0.025946]

  V1^2 = 0.9531, V2^2 = 0.0469

  Important amplitudes:
     core i     occ j      vir a      vir b          v   
    ------------------------------------------------------
     5 (A) B              21 (A) B                -0.6632
     5 (A) A              22 (A) A                -0.6630
    ------------------------------------------------------
  ----------------------------------------------------------------------------


  Excited state  3 (A)                                             [converged]
  ----------------------------------------------------------------------------
  Term symbol:  4 (-) A                                     R^2 =  6.50561e-14

  Total energy:                                           -424.7627640219 a.u.
  Excitation energy:                                             303.368820 eV

  Osc. strength:                                                      0.000000
  Trans. dip. moment [a.u.]:           [   0.000016,    0.000039,   -0.000012]
  <i|r^2|0> [a.u.]:                    [  -0.000025,    0.000443,    0.000015]

  V1^2 = 0.9288, V2^2 = 0.0712

  Important amplitudes:
     core i     occ j      vir a      vir b          v   
    ------------------------------------------------------
     5 (A) A              23 (A) A                 0.6110
     5 (A) B              23 (A) B                -0.6103
    ------------------------------------------------------
  ----------------------------------------------------------------------------


  Excited state  4 (A)                                             [converged]
  ----------------------------------------------------------------------------
  Term symbol:  5 (-) A                                     R^2 =  1.04797e-13

  Total energy:                                           -424.7046121564 a.u.
  Excitation energy:                                             304.951213 eV

  Osc. strength:                                                      0.007239
  Trans. dip. moment [a.u.]:           [  -0.012897,   -0.027831,    0.005300]
  <i|r^2|0> [a.u.]:                    [   0.009028,   -0.331397,   -0.019475]

  V1^2 = 0.9177, V2^2 = 0.0823

  Important amplitudes:
     core i     occ j      vir a      vir b          v   
    ------------------------------------------------------
     5 (A) B              23 (A) B                -0.6445
     5 (A) A              23 (A) A                -0.6438
    ------------------------------------------------------
  ----------------------------------------------------------------------------


  Excited state  5 (A)                                             [converged]
  ----------------------------------------------------------------------------
  Term symbol:  6 (-) A                                     R^2 =  3.14087e-14

  Total energy:                                           -424.6837044865 a.u.
  Excitation energy:                                             305.520140 eV

  Osc. strength:                                                      0.000000
  Trans. dip. moment [a.u.]:           [   0.000025,   -0.000014,   -0.000011]
  <i|r^2|0> [a.u.]:                    [  -0.000049,   -0.000148,    0.000010]

  V1^2 = 0.9530, V2^2 = 0.0470

  Important amplitudes:
     core i     occ j      vir a      vir b          v   
    ------------------------------------------------------
     5 (A) A              27 (A) A                -0.4952
     5 (A) B              27 (A) B                 0.4948
    ------------------------------------------------------
  ----------------------------------------------------------------------------


  Excited state  6 (A)                                             [converged]
  ----------------------------------------------------------------------------
  Term symbol:  7 (-) A                                     R^2 =  2.60790e-14

  Total energy:                                           -424.6760324734 a.u.
  Excitation energy:                                             305.728906 eV

  Osc. strength:                                                      0.000000
  Trans. dip. moment [a.u.]:           [   0.000002,   -0.000000,    0.000004]
  <i|r^2|0> [a.u.]:                    [  -0.000005,   -0.000002,   -0.000004]

  V1^2 = 0.9528, V2^2 = 0.0472

  Important amplitudes:
     core i     occ j      vir a      vir b          v   
    ------------------------------------------------------
     5 (A) B              25 (A) B                 0.4665
     5 (A) A              25 (A) A                -0.4665
    ------------------------------------------------------
  ----------------------------------------------------------------------------


  Excited state  7 (A)                                             [converged]
  ----------------------------------------------------------------------------
  Term symbol:  8 (-) A                                     R^2 =  2.41181e-14

  Total energy:                                           -424.6268301188 a.u.
  Excitation energy:                                             307.067770 eV

  Osc. strength:                                                      0.000444
  Trans. dip. moment [a.u.]:           [  -0.006302,    0.003415,    0.002761]
  <i|r^2|0> [a.u.]:                    [   0.012375,    0.037322,   -0.002626]

  V1^2 = 0.8530, V2^2 = 0.1470

  Important amplitudes:
     core i     occ j      vir a      vir b          v   
    ------------------------------------------------------
     5 (A) B              22 (A) B                -0.9201
     5 (A) B   13 (A) A   22 (A) A   22 (A) B      0.0688
    ------------------------------------------------------
  ----------------------------------------------------------------------------


  Excited state  8 (A)                                             [converged]
  ----------------------------------------------------------------------------
  Term symbol:  9 (-) A                                     R^2 =  6.32637e-14

  Total energy:                                           -424.6038339364 a.u.
  Excitation energy:                                             307.693528 eV

  Osc. strength:                                                      0.119024
  Trans. dip. moment [a.u.]:           [  -0.102446,    0.055943,    0.046524]
  <i|r^2|0> [a.u.]:                    [   0.200587,    0.612058,   -0.044194]

  V1^2 = 0.9435, V2^2 = 0.0565

  Important amplitudes:
     core i     occ j      vir a      vir b          v   
    ------------------------------------------------------
     5 (A) B              24 (A) B                -0.5221
     5 (A) A              24 (A) A                -0.5202
    ------------------------------------------------------
  ----------------------------------------------------------------------------


  Excited state  9 (A)                                             [converged]
  ----------------------------------------------------------------------------
  Term symbol:  10 (-) A                                    R^2 =  4.34291e-14

  Total energy:                                           -424.5966817248 a.u.
  Excitation energy:                                             307.888149 eV

  Osc. strength:                                                      0.118188
  Trans. dip. moment [a.u.]:           [  -0.057272,   -0.012929,   -0.110549]
  <i|r^2|0> [a.u.]:                    [   0.112625,   -0.139645,    0.088261]

  V1^2 = 0.9435, V2^2 = 0.0565

  Important amplitudes:
     core i     occ j      vir a      vir b          v   
    ------------------------------------------------------
     5 (A) A              25 (A) A                -0.5184
     5 (A) B              25 (A) B                -0.5184
    ------------------------------------------------------
  ----------------------------------------------------------------------------


  Excited state 10 (A)                                             [converged]
  ----------------------------------------------------------------------------
  Term symbol:  11 (-) A                                    R^2 =  7.98174e-14

  Total energy:                                           -424.3865908370 a.u.
  Excitation energy:                                             313.605013 eV

  Osc. strength:                                                      0.000010
  Trans. dip. moment [a.u.]:           [   0.000389,    0.001023,   -0.000369]
  <i|r^2|0> [a.u.]:                    [  -0.000887,    0.011076,    0.000166]

  V1^2 = 0.9155, V2^2 = 0.0845

  Important amplitudes:
     core i     occ j      vir a      vir b          v   
    ------------------------------------------------------
     5 (A) A              26 (A) A                -0.5372
     5 (A) B              26 (A) B                 0.5136
    ------------------------------------------------------
  ----------------------------------------------------------------------------


  Excited state 11 (A)                                             [converged]
  ----------------------------------------------------------------------------
  Term symbol:  12 (-) A                                    R^2 =  8.17339e-14

  Total energy:                                           -424.3728851800 a.u.
  Excitation energy:                                             313.977963 eV

  Osc. strength:                                                      0.000002
  Trans. dip. moment [a.u.]:           [   0.000154,    0.000398,   -0.000140]
  <i|r^2|0> [a.u.]:                    [  -0.000339,    0.004319,    0.000071]

  V1^2 = 0.9077, V2^2 = 0.0923

  Important amplitudes:
     core i     occ j      vir a      vir b          v   
    ------------------------------------------------------
     5 (A) B              29 (A) B                -0.4599
     5 (A) A              29 (A) A                 0.4593
    ------------------------------------------------------
  ----------------------------------------------------------------------------


  Excited state 12 (A)                                             [converged]
  ----------------------------------------------------------------------------
  Term symbol:  13 (-) A                                    R^2 =  7.87278e-14

  Total energy:                                           -424.3553803336 a.u.
  Excitation energy:                                             314.454294 eV

  Osc. strength:                                                      0.041688
  Trans. dip. moment [a.u.]:           [  -0.026045,   -0.065412,    0.021313]
  <i|r^2|0> [a.u.]:                    [   0.052958,   -0.714468,   -0.014525]

  V1^2 = 0.9097, V2^2 = 0.0903

  Important amplitudes:
     core i     occ j      vir a      vir b          v   
    ------------------------------------------------------
     5 (A) B              26 (A) B                 0.6660
     5 (A) A              26 (A) A                 0.6438
    ------------------------------------------------------
  ----------------------------------------------------------------------------


  Excited state 13 (A)                                             [converged]
  ----------------------------------------------------------------------------
  Term symbol:  14 (-) A                                    R^2 =  2.88443e-13

  Total energy:                                           -424.3355549419 a.u.
  Excitation energy:                                             314.993770 eV

  Osc. strength:                                                      0.000007
  Trans. dip. moment [a.u.]:           [   0.000760,   -0.000403,   -0.000329]
  <i|r^2|0> [a.u.]:                    [  -0.001458,   -0.004428,    0.000303]

  V1^2 = 0.8953, V2^2 = 0.1047

  Important amplitudes:
     core i     occ j      vir a      vir b          v   
    ------------------------------------------------------
     5 (A) A              24 (A) A                -0.4825
     5 (A) A              27 (A) A                 0.4733
    ------------------------------------------------------
  ----------------------------------------------------------------------------


  Excited state 14 (A)                                             [converged]
  ----------------------------------------------------------------------------
  Term symbol:  15 (-) A                                    R^2 =  7.88873e-13

  Total energy:                                           -424.3345745103 a.u.
  Excitation energy:                                             315.020449 eV

  Osc. strength:                                                      0.000000
  Trans. dip. moment [a.u.]:           [  -0.000082,   -0.000151,    0.000042]
  <i|r^2|0> [a.u.]:                    [   0.000133,   -0.001684,   -0.000059]

  V1^2 = 0.8955, V2^2 = 0.1045

  Important amplitudes:
     core i     occ j      vir a      vir b          v   
    ------------------------------------------------------
     5 (A) A              25 (A) A                 0.4814
     5 (A) B              25 (A) B                -0.4811
    ------------------------------------------------------
  ----------------------------------------------------------------------------


  Excited state 15 (A)                                             [converged]
  ----------------------------------------------------------------------------
  Term symbol:  16 (-) A                                    R^2 =  6.36265e-13

  Total energy:                                           -424.3211451768 a.u.
  Excitation energy:                                             315.385880 eV

  Osc. strength:                                                      0.029133
  Trans. dip. moment [a.u.]:           [  -0.050221,    0.027298,    0.022427]
  <i|r^2|0> [a.u.]:                    [   0.096337,    0.299720,   -0.020444]

  V1^2 = 0.8988, V2^2 = 0.1012

  Important amplitudes:
     core i     occ j      vir a      vir b          v   
    ------------------------------------------------------
     5 (A) B              27 (A) B                -0.5258
     5 (A) A              27 (A) A                -0.5117
    ------------------------------------------------------
  ----------------------------------------------------------------------------


  Excited state 16 (A)                                             [converged]
  ----------------------------------------------------------------------------
  Term symbol:  17 (-) A                                    R^2 =  6.91529e-13

  Total energy:                                           -424.3196296225 a.u.
  Excitation energy:                                             315.427120 eV

  Osc. strength:                                                      0.030313
  Trans. dip. moment [a.u.]:           [  -0.028413,   -0.006790,   -0.055400]
  <i|r^2|0> [a.u.]:                    [   0.054499,   -0.074229,    0.045817]

  V1^2 = 0.8992, V2^2 = 0.1008

  Important amplitudes:
     core i     occ j      vir a      vir b          v   
    ------------------------------------------------------
     5 (A) B              28 (A) B                -0.4816
     5 (A) A              28 (A) A                -0.4795
    ------------------------------------------------------
  ----------------------------------------------------------------------------


  Excited state 17 (A)                                             [converged]
  ----------------------------------------------------------------------------
  Term symbol:  18 (-) A                                    R^2 =  1.76034e-13

  Total energy:                                           -424.3160752301 a.u.
  Excitation energy:                                             315.523840 eV

  Osc. strength:                                                      0.000318
  Trans. dip. moment [a.u.]:           [   0.001325,    0.005302,   -0.003354]
  <i|r^2|0> [a.u.]:                    [   0.022892,    0.084942,    0.027896]

  V1^2 = 0.9156, V2^2 = 0.0844

  Important amplitudes:
     core i     occ j      vir a      vir b          v   
    ------------------------------------------------------
     5 (A) B              29 (A) B                 0.6089
     5 (A) A              29 (A) A                 0.6054
    ------------------------------------------------------
  ----------------------------------------------------------------------------


  Excited state 18 (A)                                         [not converged]
  ----------------------------------------------------------------------------
  Term symbol:  19 (-) A                                    R^2 =  1.10202e-05

  Total energy:                                           -423.6861980418 a.u.
  Excitation energy:                                             332.663670 eV


  V1^2 = 0.8694, V2^2 = 0.1306

  Important amplitudes:
     core i     occ j      vir a      vir b          v   
    ------------------------------------------------------
     5 (A) B              31 (A) B                 0.5555
     5 (A) A              31 (A) A                -0.5170
    ------------------------------------------------------
  ----------------------------------------------------------------------------


  Excited state 19 (A)                                         [not converged]
  ----------------------------------------------------------------------------
  Term symbol:  20 (-) A                                    R^2 =  2.04277e-04

  Total energy:                                           -423.6825388639 a.u.
  Excitation energy:                                             332.763242 eV


  V1^2 = 0.8687, V2^2 = 0.1313

  Important amplitudes:
     core i     occ j      vir a      vir b          v   
    ------------------------------------------------------
     5 (A) A              33 (A) A                 0.6471
     5 (A) B              33 (A) B                -0.6417
    ------------------------------------------------------
  ----------------------------------------------------------------------------


  Excited state 20 (A)                                         [not converged]
  ----------------------------------------------------------------------------
  Term symbol:  21 (-) A                                    R^2 =  2.21189e-05

  Total energy:                                           -423.6796624526 a.u.
  Excitation energy:                                             332.841513 eV


  V1^2 = 0.8681, V2^2 = 0.1319

  Important amplitudes:
     core i     occ j      vir a      vir b          v   
    ------------------------------------------------------
     5 (A) B              31 (A) B                -0.5613
     5 (A) A              31 (A) A                -0.5237
    ------------------------------------------------------
  ----------------------------------------------------------------------------


--------------------------------------------------------------------------------
  Time of ADC calculation:  CPU 1229.38 s  wall 1267.44 s
================================================================================
 
 --------------------------------------------------------------
 
                    Orbital Energies (a.u.)
 --------------------------------------------------------------
 
 Alpha MOs
 -- Occupied --
-26.751 -26.747 -26.747 -26.573 -11.954  -2.174  -2.069  -2.064
 -1.824  -1.326  -1.244  -1.243  -1.191  -1.074  -1.074  -1.048
 -1.045  -1.023  -0.992  -0.886  -0.884
 -- Virtual --
 -0.211   0.019   0.196   0.198   0.330   0.406   0.411   0.421
  0.920   1.007   1.011   1.011   1.117   1.119   1.199   1.233
  1.263   1.273   1.275   1.286   1.287   1.306   1.381   1.438
  1.640   1.640   1.745   1.747   1.779   1.862   1.863   1.880
  1.893   1.899   1.919   1.954   1.956   1.957   1.966   2.038
  2.056   2.340   2.661   2.669   2.984   2.995   3.207   3.212
  3.213   3.568   4.190   4.657   4.784   4.807
 
 Beta MOs
 -- Occupied --
-26.751 -26.747 -26.747 -26.525 -11.954  -2.174  -2.069  -2.064
 -1.632  -1.326  -1.244  -1.243  -1.191  -1.074  -1.074  -1.048
 -1.045  -1.023  -0.833  -0.832
 -- Virtual --
 -0.211  -0.073   0.020   0.196   0.198   0.331   0.406   0.411
  0.422   0.949   1.007   1.011   1.011   1.117   1.119   1.251
  1.270   1.272   1.286   1.286   1.293   1.306   1.383   1.421
  1.445   1.640   1.641   1.746   1.747   1.779   1.881   1.884
  1.887   1.956   1.956   1.961   1.968   1.981   1.987   1.998
  2.038   2.056   2.341   2.661   2.669   2.984   2.995   3.207
  3.212   3.213   3.609   4.191   4.657   4.785   4.807
 --------------------------------------------------------------
 
          Ground-State Mulliken Net Atomic Charges

     Atom                 Charge (a.u.)    Spin (a.u.)
  --------------------------------------------------------
      1 C                     1.236335      -0.001140
      2 F                    -0.085241       0.000013
      3 F                    -0.085094       0.000013
      4 F                     0.007790       1.001102
      5 F                    -0.073790       0.000012
  --------------------------------------------------------
  Sum of atomic charges =     1.000000
  Sum of spin   charges =     1.000000

 -----------------------------------------------------------------
                    Cartesian Multipole Moments
 -----------------------------------------------------------------
    Charge (ESU x 10^10)
                 4.8032
    Dipole Moment (Debye)
         X      -2.5415      Y      13.6339      Z      -1.0008
       Tot      13.9049
    Quadrupole Moments (Debye-Ang)
        XX     -19.0138     XY      -7.0838     YY      18.9337
        XZ       0.1329     YZ      -3.1497     ZZ     -20.5840
    Octopole Moments (Debye-Ang^2)
       XXX      41.8724    XXY     -44.8712    XYY      -5.2059
       YYY     -30.5337    XXZ       1.1835    XYZ       0.9757
       YYZ      -9.3272    XZZ      13.2865    YZZ     -47.6886
       ZZZ      -0.7324
    Hexadecapole Moments (Debye-Ang^3)
      XXXX    -140.8027   XXXY      76.0609   XXYY    -165.5363
      XYYY      19.6965   YYYY    -557.6174   XXXZ       6.5088
      XXYZ      10.4512   XYYZ       6.3901   YYYZ       2.8483
      XXZZ     -36.9730   XYZZ      22.5593   YYZZ    -160.9701
      XZZZ      11.0915   YZZZ      27.8293   ZZZZ     -89.9421
 -----------------------------------------------------------------
Archival summary:
1\1\tp-linux1\SP\HF\6-31G*\41(1+,2)\thomas\WedMar2219:21:252017WedMar2219:21:252017\0\\#,HF,6-31G*,\\1,2\C\F,1,1.21248\F,1,1.2215,2,119.128\F,1,1.22161,2,119.144,3,160.526,0\F,1,3.28537,2,99.19,3,-99.8798,0\\HF=-435.170652\\@

 Total job time:  1289.94s(wall), 1245.75s(cpu) 
 Wed Mar 22 19:21:25 2017

        *************************************************************
        *                                                           *
        *  Thank you very much for using Q-Chem.  Have a nice day.  *
        *                                                           *
        *************************************************************


0 sent ACK to 0 
now end server 0 ... 
cleanup process ... done
