
Running Job 1 of 1 ddtraj1t40.inp
qchem ddtraj1t40.inp_10165.0 /scratch/qchem/qchem10165/ 1
/mnt/software/qchem/bin/mpi/mpirun_qchem -machinefile /mnt/software/qchem/bin/mpi/machines -np 1 /mnt/software/qchem/exe/qcprog.exe ddtraj1t40.inp_10165.0 /scratch/qchem/qchem10165/

Process 0 of 1 is on tp-linux1 - thread support 0
initial socket setup ...start
initial socket setup ...done 
now start server 0 ... 

cmd = ssh tp-linux1 /mnt/software/qchem/bin/get_hostid 1959671305 > /scratch/qchem/qchem10165/lic.dat
                  Welcome to Q-Chem
     A Quantum Leap Into The Future Of Chemistry


 Q-Chem 4.3, Q-Chem, Inc., Pleasanton, CA (2015)

 Y. Shao,  Z. Gan,  E. Epifanovsky,  A. T. B. Gilbert,  M. Wormit,  
 J. Kussmann,  A. W. Lange,  A. Behn,  J. Deng,  X. Feng,  D. Ghosh,  
 M. Goldey,  P. R. Horn,  L. D. Jacobson,  I. Kaliman,  R. Z. Khaliullin,  
 T. Kus,  A. Landau,  J. Liu,  E. I. Proynov,  Y. M. Rhee,  R. M. Richard,  
 M. A. Rohrdanz,  R. P. Steele,  E. J. Sundstrom,  H. L. Woodcock III,  
 P. M. Zimmerman,  D. Zuev,  B. Albrecht,  E. Alguire,  B. Austin,  
 S. A. Baeppler,  G. J. O. Beran,  Y. A. Bernard,  E. Berquist,  
 K. Brandhorst,  K. B. Bravaya,  S. T. Brown,  D. Casanova,  C.-M. Chang,  
 Y. Chen,  S. H. Chien,  K. D. Closser,  D. L. Crittenden,  M. Diedenhofen,  
 R. A. DiStasio Jr.,  H. Do,  A. D. Dutoi,  R. G. Edgar,  P.-T. Fang,  
 S. Fatehi,  Q. Feng,  L. Fusti-Molnar,  A. Ghysels,  
 A. Golubeva-Zadorozhnaya,  J. Gomes,  A. Gunina,  M. W. D. Hanson-Heine,  
 P. H. P. Harbach,  A. W. Hauser,  E. G. Hohenstein,  Z. C. Holden,  K. Hui,  
 T.-C. Jagau,  H. Ji,  B. Kaduk,  K. Khistyaev,  Jaehoon Kim,  Jihan Kim,  
 R. A. King,  P. Klunzinger,  D. Kosenkov,  T. Kowalczyk,  C. M. Krauter,  
 K. U. Lao,  A. Laurent,  K. V. Lawler,  S. Lehtola,  S. V. Levchenko,  
 C. Y. Lin,  Y.-S. Lin,  F. Liu,  E. Livshits,  R. C. Lochan,  A. Luenser,  
 P. Manohar,  S. F. Manzer,  S.-P. Mao,  N. Mardirossian,  A. V. Marenich,  
 L. A. Martinez-Martinez,  S. A. Maurer,  N. J. Mayhall,  K. Nanda,  
 C. M. Oana,  R. Olivares-Amaya,  D. P. O'Neill,  J. A. Parkhill,  
 T. M. Perrine,  R. Peverati,  P. A. Pieniazek,  F. Plasser,  A. Prociuk,  
 D. R. Rehn,  E. Rosta,  N. J. Russ,  N. Sergueev,  S. M. Sharada,  
 S. Sharma,  D. W. Small,  A. Sodt,  T. Stauch,  T. Stein,  D. Stuck,  
 Y.-C. Su,  A. J. W. Thom,  T. Tsuchimochi,  L. Vogt,  O. Vydrov,  T. Wang,  
 M. A. Watson,  J. Wenzel,  A. White,  C. F. Williams,  V. Vanovschi,  
 S. Yeganeh,  S. R. Yost,  Z.-Q. You,  I. Y. Zhang,  X. Zhang,  Y. Zhao,  
 B. R. Brooks,  G. K. L. Chan,  D. M. Chipman,  C. J. Cramer,  
 W. A. Goddard III,  M. S. Gordon,  W. J. Hehre,  A. Klamt,  
 H. F. Schaefer III,  M. W. Schmidt,  C. D. Sherrill,  D. G. Truhlar,  
 A. Warshel,  X. Xu,  A. Aspuru-Guzik,  R. Baer,  A. T. Bell,  N. A. Besley,  
 J.-D. Chai,  A. Dreuw,  B. D. Dunietz,  T. R. Furlani,  S. R. Gwaltney,  
 C.-P. Hsu,  Y. Jung,  J. Kong,  D. S. Lambrecht,  W. Liang,  C. Ochsenfeld,  
 V. A. Rassolov,  L. V. Slipchenko,  J. E. Subotnik,  T. Van Voorhis,  
 J. M. Herbert,  A. I. Krylov,  P. M. W. Gill,  M. Head-Gordon

 Contributors to earlier versions of Q-Chem not listed above: 
 R. D. Adamson,  J. Baker,  E. F. C. Byrd,  A. K. Chakraborty,  C.-L. Cheng,  
 H. Dachsel,  R. J. Doerksen,  G. Hawkins,  A. Heyden,  S. Hirata,  
 G. Kedziora,  F. J. Keil,  C. Kelley,  P. P. Korambath,  W. Kurlancheek,  
 A. M. Lee,  M. S. Lee,  D. Liotard,  I. Lotan,  P. E. Maslen,  N. Nair,  
 D. Neuhauser,  R. Olson,  B. Peters,  J. Ritchie,  N. E. Schultz,  
 N. Shenvi,  A. C. Simmonett,  K. S. Thanthiriwatte,  Q. Wu,  W. Zhang

 Please cite Q-Chem as follows:
 Y. Shao et al., Mol. Phys. 113, 184-215 (2015)
 DOI: 10.1080/00268976.2014.952696

 Q-Chem 4.3.0 for Intel X86 Linux

 Parts of Q-Chem use Armadillo 5.200.1 (Boston Tea Smuggler).
 http://arma.sourceforge.net/

 Q-Chem begins on Wed Mar 22 16:33:04 2017  

Host: 
0

     Scratch files written to /scratch/qchem/qchem10165//
 Nov1815 1189b_ 19540  19532 5443   
 Parallel job on  1  processors
Processing $rem in /mnt/software/qchem/config/preferences.
 MEM_TOTAL  2000 

Checking the input file for inconsistencies... 	...done.

--------------------------------------------------------------
User input:
--------------------------------------------------------------
$comment
XAS calculation for valence excited states for CF4+ using cvs-adc(2) + 6-31G* basis set
job 1 - determination of HF orbitals
$end

$molecule
1 2
6  -0.575182  2.702896  -0.147477
9  0.685498  2.593648  -0.102178
9  -1.045819  3.537235  0.680833
9  -1.490377  0.188189  0.840905
9  -1.025075  2.856509  -1.326409
$end

$comment
cvs-adc(2) calculation
$end

$rem
mem_total 3000
mem_static 1500
sym_ignore true
method cvs-adc(2)
basis 6-31G*
ee_singlets 20
cc_rest_occ 5                  !only excitations from the lowest N orbitals
unrestricted  true
max_scf_cycles 200
SCF_ALGORITHM = DIIS_GDM
SCF_CONVERGENCE = 7
THRESH = 10
$end
--------------------------------------------------------------
 ----------------------------------------------------------------
             Standard Nuclear Orientation (Angstroms)
    I     Atom           X                Y                Z
 ----------------------------------------------------------------
    1      C      -0.5751820000     2.7028960000    -0.1474770000
    2      F       0.6854980000     2.5936480000    -0.1021780000
    3      F      -1.0458190000     3.5372350000     0.6808330000
    4      F      -1.4903770000     0.1881890000     0.8409050000
    5      F      -1.0250750000     2.8565090000    -1.3264090000
 ----------------------------------------------------------------
 Nuclear Repulsion Energy =   175.9934994844 hartrees
 There are       21 alpha and       20 beta electrons
 Requested basis set is 6-31G(d)
 There are 20 shells and 75 basis functions

 Total QAlloc Memory Limit   3000 MB
 Mega-Array Size      1467 MB
 MEM_STATIC part      1500 MB

                       Distance Matrix (Angstroms)
             C (  1)   F (  2)   F (  3)   F (  4)
   F (  2)  1.266215
   F (  3)  1.266380  2.121537
   F (  4)  2.852759  3.377880  3.382213
   F (  5)  1.271173  2.119881  2.119632  3.468961
 
 tim1(1): 
  0.000000000000000E+000
 tim1(2): 
  0.000000000000000E+000
 A cutoff of  1.0D-10 yielded    187 shell pairs
 There are      2866 function pairs
 
 -------------------------------------------------------
 OpenMP Integral Computing Module                       
 Release: version 1.0, May 2013, Q-Chem Inc. Pittsburgh 
 -------------------------------------------------------
 Integral Job Info:
 Integral job number is                      11
 Integral operator is                         1
 short-range coefficients                     0
 long-range coefficients              100000000
 Omega coefficients                           0
 if combine SR and LR in K                    0
 Integral screening is                        0
 Integral computing path is                   2
 max size of driver memory is            800000
 size of driver memory is                593474
 size of scratch memory is              2260544
 max col of scratch BK array               1296
 max len of scratch array in speh3          155
 max len of scratch index in speh4           18
 max int batch size is                      520
 min int batch size is                       52
 fixed nKL is                                52
 max L of basis functions is                  2
 order of int derivative is                   0
 number of shells is                         20
 number of basis is                          75
 number of cartesian basis is                75
 number of contracted shell pairs           187
 number of primitive shell pairs            943
 maxK2 (contraction) of shell pair           36
 max number of K2 of shell pair               1
 max number of CS2 of shell pair             32
 max number of PS2 of shell pair            192
 mem total for path MDJ                   18100
 -------------------------------------------------------
 Smallest overlap matrix eigenvalue = 3.34E-03

 Scale SEOQF with 1.000000e-01/1.000000e-01/1.000000e+00

 Standard Electronic Orientation quadrupole field applied
 Nucleus-field energy     =    -0.0000000061 hartrees
 Guess from superposition of atomic densities
 Warning:  Energy on first SCF cycle will be non-variational
 An unrestricted Hartree-Fock SCF calculation will be
 performed using Pulay DIIS + Geometric Direct Minimization
 SCF converges when RMS gradient is below 1.0E-07
 ---------------------------------------
  Cycle       Energy         DIIS Error
 ---------------------------------------
    1    -436.0288880923      8.26E-02
    2    -434.9094027170      1.84E-02
    3    -435.0747774427      9.89E-03 Done DIIS. Switching to GDM
    4    -435.1200824922      9.53E-03 Normal BFGS step
    5    -435.1214652750      1.12E-02 Normal BFGS step
    6    -435.1219975923      2.66E-03 Normal BFGS step
    7    -435.1220410052      2.63E-03 Normal BFGS step
    8    -435.1220548408      2.59E-03 Normal BFGS step
    9    -435.1220758391      2.48E-03 Normal BFGS step
   10    -435.1221155840      2.23E-03 Normal BFGS step
   11    -435.1221866152      2.14E-03 Normal BFGS step
   12    -435.1222753304      2.12E-03 Normal BFGS step
   13    -435.1223332751      1.16E-03 Normal BFGS step
   14    -435.1223489037      3.34E-04 Normal BFGS step
   15    -435.1223501764      9.36E-05 Normal BFGS step
   16    -435.1223502721      5.34E-05 Normal BFGS step
   17    -435.1223502839      2.86E-05 Normal BFGS step
   18    -435.1223502880      1.42E-05 Normal BFGS step
   19    -435.1223502900      1.15E-05 Normal BFGS step
   20    -435.1223502905      1.15E-05 Normal BFGS step
   21    -435.1223502909      1.15E-05 Normal BFGS step
   22    -435.1223502913      1.15E-05 Normal BFGS step
   23    -435.1223502923      1.27E-05 Normal BFGS step
   24    -435.1223502946      2.20E-05 Normal BFGS step
   25    -435.1223503005      3.67E-05 Normal BFGS step
   26    -435.1223503158      6.03E-05 Normal BFGS step
   27    -435.1223503555      9.78E-05 Normal BFGS step
   28    -435.1223504572      1.58E-04 Normal BFGS step
   29    -435.1223506744      2.43E-04 Normal BFGS step
   30    -435.1223509705      4.06E-04 Normal BFGS step
   31    -435.1223516993      5.52E-04 Normal BFGS step
   32    -435.1223531826      2.56E-04 Normal BFGS step
   33    -435.1223536430      3.25E-04 Normal BFGS step
   34    -435.1223549552      2.28E-04 Normal BFGS step
   35    -435.1223349858      1.75E-03 Line search: overstep
   36    -435.1223551862      2.79E-04 Normal BFGS step
   37    -435.1223558092      8.51E-04 Normal BFGS step
   38    -435.1223570166      1.41E-04 Normal BFGS step
   39    -435.1223576412      1.87E-04 Normal BFGS step
   40    -435.1223548583      9.23E-04 Line search: overstep
   41    -435.1223580857      3.15E-04 Normal BFGS step
   42    -435.1223583435      8.22E-04 Normal BFGS step
   43    -435.1223592417      1.77E-04 Normal BFGS step
   44    -435.1223597931      1.35E-04 Normal BFGS step
   45    -435.1223540901      1.05E-03 Line search: overstep
   46    -435.1223603421      2.10E-04 Dog-leg BFGS step
   47    -435.1223608861      7.37E-04 Normal BFGS step
   48    -435.1223617158      1.15E-04 Normal BFGS step
   49    -435.1223623044      1.25E-04 Normal BFGS step
   50    -435.1223478607      1.74E-03 Line search: overstep
   51    -435.1223625881      1.87E-04 Dog-leg BFGS step
   52    -435.1223629216      7.17E-04 Normal BFGS step
   53    -435.1223635576      9.68E-05 Normal BFGS step
   54    -435.1223639488      1.07E-04 Normal BFGS step
   55    -435.1223590668      9.14E-04 Line search: overstep
   56    -435.1223642397      1.72E-04 Dog-leg BFGS step
   57    -435.1223642887      7.00E-04 Normal BFGS step
   58    -435.1223649263      5.35E-05 Normal BFGS step
   59    -435.1223651974      7.14E-05 Normal BFGS step
   60    -435.1223606041      8.56E-04 Line search: overstep
   61    -435.1223653936      1.21E-04 Dog-leg BFGS step
   62    -435.1223651895      3.58E-04 Line search: overstep
   63    -435.1223656585      2.38E-04 Dog-leg BFGS step
   64    -435.1223659189      2.37E-04 Dog-leg BFGS step
   65    -435.1223662653      4.89E-05 Dog-leg BFGS step
   66    -435.1223664311      1.40E-04 Dog-leg BFGS step
   67    -435.1223666157      1.26E-04 Dog-leg BFGS step
   68    -435.1223667939      4.22E-05 Dog-leg BFGS step
   69    -435.1223668614      1.53E-04 Dog-leg BFGS step
   70    -435.1223669917      6.54E-05 Normal BFGS step
   71    -435.1223670446      3.69E-05 Normal BFGS step
   72    -435.1223670915      6.04E-05 Normal BFGS step
   73    -435.1223670252      1.08E-04 Line search: overstep
   74    -435.1223671083      2.85E-05 Normal BFGS step
   75    -435.1223671211      2.42E-05 Normal BFGS step
   76    -435.1223671238      2.35E-05 Normal BFGS step
   77    -435.1223671263      2.13E-05 Normal BFGS step
   78    -435.1223671282      1.92E-05 Normal BFGS step
   79    -435.1223671309      1.76E-05 Normal BFGS step
   80    -435.1223671336      1.49E-05 Normal BFGS step
   81    -435.1223671374      1.57E-05 Normal BFGS step
   82    -435.1223671417      1.89E-05 Normal BFGS step
   83    -435.1223671456      1.79E-05 Normal BFGS step
   84    -435.1223671484      7.63E-06 Normal BFGS step
   85    -435.1223671494      2.40E-06 Normal BFGS step
   86    -435.1223671494      1.40E-06 Normal BFGS step
   87    -435.1223671495      1.32E-06 Normal BFGS step
   88    -435.1223671495      7.27E-07 Normal BFGS step
   89    -435.1223671495      2.48E-07 Normal BFGS step
   90    -435.1223671495      1.52E-07 Normal BFGS step
   91    -435.1223671495      5.68E-08 Convergence criterion met
 ---------------------------------------
 <S^2> = 0.7532
 SCF time:  CPU 13.22 s  wall 18.57 s
 SCF   energy in the final basis set = -435.1223671495
 Total energy in the final basis set = -435.1223671495
================================================================================
|                                                                              |
|                                 A D C  M A N                                 |
|                                                                              |
 ------------------------------------------------------------------------------ 
|                                                                              |
| Components:                                                                  |
|                                                                              |
| - libvmm - 1.2-release                                                       |
|   Authors:                                                                   |
|   Evgeny Epifanovsky, Ilya Kaliman                                           |
|                                                                              |
| - libtensor - 2.4-trunk                                                      |
|   Authors:                                                                   |
|   Evgeny Epifanovsky, Michael Wormit, Dmitry Zuev, Sam Manzer                |
|                                                                              |
| - libwfa - 1.1-beta                                                          |
|   Authors:                                                                   |
|   Felix Plasser, Stefanie Baeppler, Benjamin Thomitzni, Michael Wormit       |
|                                                                              |
| - libadc - 1.0-beta                                                          |
|   Authors:                                                                   |
|   Michael Wormit, Philipp H. P. Harbach, Caroline Krauter, Dirk Rehn,        |
|   Matthias Schneider, Jan Wenzel                                             |
|                                                                              |
| - adcman - 2.4-beta                                                          |
|   Authors:                                                                   |
|   Michael Wormit, Philipp H. P. Harbach, Caroline Krauter, Dirk Rehn,        |
|   Jan Wenzel, Andreas Dreuw                                                  |
|                                                                              |
| Authors of earlier versions of ADCMAN:                                       |
| Andreas Dreuw, Jan Hendrik Starcke, Dirk Rehn, Michael Wormit                |
|                                                                              |
================================================================================

 
 Alpha MOs, Unrestricted
 -- Occupied --                  
-26.739 -26.739 -26.737 -26.615 -11.970  -2.135  -2.029  -2.026
  1 A     2 A     3 A     4 A     5 A     6 A     7 A     8 A                  
 -1.864  -1.314  -1.210  -1.209  -1.157  -1.055  -1.054  -1.031
  9 A    10 A    11 A    12 A    13 A    14 A    15 A    16 A                  
 -1.024  -1.022  -1.009  -0.925  -0.922
 17 A    18 A    19 A    20 A    21 A                                          
 -- Virtual --                   
 -0.308   0.107   0.112   0.115   0.339   0.375   0.376   0.400
 22 A    23 A    24 A    25 A    26 A    27 A    28 A    29 A                  
  0.927   1.016   1.018   1.041   1.056   1.058   1.168   1.207
 30 A    31 A    32 A    33 A    34 A    35 A    36 A    37 A                  
  1.231   1.288   1.289   1.315   1.322   1.324   1.415   1.486
 38 A    39 A    40 A    41 A    42 A    43 A    44 A    45 A                  
  1.625   1.625   1.736   1.746   1.784   1.802   1.807   1.811
 46 A    47 A    48 A    49 A    50 A    51 A    52 A    53 A                  
  1.848   1.858   1.903   1.923   1.943   1.989   1.994   2.065
 54 A    55 A    56 A    57 A    58 A    59 A    60 A    61 A                  
  2.067   2.456   2.463   2.545   2.810   2.811   3.100   3.102
 62 A    63 A    64 A    65 A    66 A    67 A    68 A    69 A                  
  3.125   3.587   4.230   4.391   4.395   4.733
 70 A    71 A    72 A    73 A    74 A    75 A                                  
 
 Beta MOs, Unrestricted
 -- Occupied --                  
-26.739 -26.739 -26.737 -26.566 -11.970  -2.135  -2.029  -2.026
  1 A     2 A     3 A     4 A     5 A     6 A     7 A     8 A                  
 -1.670  -1.314  -1.210  -1.209  -1.157  -1.055  -1.054  -1.024
  9 A    10 A    11 A    12 A    13 A    14 A    15 A    16 A                  
 -1.023  -1.009  -0.870  -0.870
 17 A    18 A    19 A    20 A                                                  
 -- Virtual --                   
 -0.308  -0.112   0.107   0.112   0.117   0.344   0.375   0.378
 21 A    22 A    23 A    24 A    25 A    26 A    27 A    28 A                  
  0.400   0.953   1.016   1.018   1.044   1.059   1.059   1.220
 29 A    30 A    31 A    32 A    33 A    34 A    35 A    36 A                  
  1.254   1.288   1.290   1.315   1.320   1.325   1.383   1.418
 37 A    38 A    39 A    40 A    41 A    42 A    43 A    44 A                  
  1.497   1.625   1.626   1.747   1.747   1.783   1.809   1.812
 45 A    46 A    47 A    48 A    49 A    50 A    51 A    52 A                  
  1.816   1.927   1.946   1.947   1.961   1.968   1.992   1.994
 53 A    54 A    55 A    56 A    57 A    58 A    59 A    60 A                  
  2.067   2.069   2.456   2.463   2.547   2.810   2.811   3.100
 61 A    62 A    63 A    64 A    65 A    66 A    67 A    68 A                  
  3.102   3.125   3.627   4.231   4.391   4.395   4.734
 69 A    70 A    71 A    72 A    73 A    74 A    75 A                          
 

--------------------------------------------------------------------------------
                                   HF Summary                                   
--------------------------------------------------------------------------------
  Energy:                                                 -435.1223671495 a.u.
  Dip. moment [a.u.]:                  [ -54.238139,  181.883114,    0.077811]
  Total dipole [Debye]:                                             482.418275
  <r^2> [a.u.]:                        [ 176.345761, 1029.470165,  110.569083]
  Total <r^2> [a.u.]:                                              1316.385009
--------------------------------------------------------------------------------

--------------------------------------------------------------------------------
                                 MP(2) Summary                                  
--------------------------------------------------------------------------------
  Energy contribution:                                      -0.7571029313 a.u.
  Total energy:                                           -435.8794700808 a.u.
  Dip. moment [a.u.]:                  [ -54.308659,  181.703058,    0.138750]
  Total dipole [Debye]:                                             482.031108
  <r^2> [a.u.]:                        [ 176.170385, 1027.563280,  110.186583]
  Total <r^2> [a.u.]:                                              1313.920248
--------------------------------------------------------------------------------
  Starting Davidson ... 
--------------------------------------------------------------------------------
   It NVec Conv  Avg. Norm  Max. Norm  Conv. states           Remark
--------------------------------------------------------------------------------
        20    0  2.044e-01  1.122e+00 10.9195 n n n n n n n n Guess.
    1   40    0  5.938e-02  6.583e-01 10.7517 n n n n n n n n 
    2   60    0  1.881e-02  2.257e-01 10.7503 n n n n n n n n 
    3   80    0  4.019e-03  4.735e-02 10.7503 n n n n n n n n 
    4  100    0  3.367e-03  4.167e-02 10.7502 n n n n n n n n 
    5   40    0  2.202e-03  2.702e-02 10.7502 n n n n n n n n Subspace collapsed.
    6   60    0  2.739e-03  4.175e-02 10.7502 n n n n n n n n 
    7   80    0  2.304e-03  3.104e-02 10.7502 n n n n n n n n 
    8  100    2  2.102e-03  3.162e-02 10.7502 y y n n n n n n 
    9   40    7  1.170e-03  1.455e-02 10.7502 y y y y n y y y Subspace collapsed.
   10   60    8  8.551e-04  1.235e-02 10.7502 y y y y n y y y 
   11   80    9  5.220e-04  7.464e-03 10.7502 y y y y y y y y 
   12  100   11  5.469e-04  7.611e-03 10.7502 y y y y y y y y 
   13   40   16  3.689e-04  5.147e-03 10.7502 y y y y y y y y Subspace collapsed.
   14   60   16  4.399e-04  5.991e-03 10.7502 y y y y y y y y 
   15   80   16  4.154e-04  6.537e-03 10.7502 y y y y y y y y 
   16  100   17  6.380e-04  1.185e-02 10.7502 y y y y y y y y 
   17   20   17  6.380e-04  1.185e-02 10.7502 y y y y y y y y Subspace collapsed.
   18   20   17  6.380e-04  1.185e-02 10.7502 y y y y y y y y 
   19   40   17  3.342e-04  5.957e-03 10.7502 y y y y y y y y 
   20   58   17  2.904e-04  5.380e-03 10.7502 y y y y y y y y 
   21   74   17  2.195e-04  4.160e-03 10.7502 y y y y y y y y 
   22   74   17  2.195e-04  4.160e-03 10.7502 y y y y y y y y 
   23   93   17  2.212e-04  4.262e-03 10.7502 y y y y y y y y 
   24  100   17  2.202e-04  4.238e-03 10.7502 y y y y y y y y 
   25   31   17  1.894e-04  3.658e-03 10.7502 y y y y y y y y Subspace collapsed.
   26   42   17  2.487e-04  4.865e-03 10.7502 y y y y y y y y 
   27   53   17  2.835e-04  5.611e-03 10.7502 y y y y y y y y 
   28   64   17  4.274e-04  8.524e-03 10.7502 y y y y y y y y 
   29   75   17  1.173e-03  2.343e-02 10.7502 y y y y y y y y 
   30   75   17  1.173e-03  2.343e-02 10.7502 y y y y y y y y 
   31   79   17  1.171e-03  2.339e-02 10.7502 y y y y y y y y 
   32   79   17  1.171e-03  2.339e-02 10.7502 y y y y y y y y 
   33   79   17  1.171e-03  2.339e-02 10.7502 y y y y y y y y 
   34   99   17  1.362e-03  2.281e-02 10.7502 y y y y y y y y 
   35   99   17  1.362e-03  2.281e-02 10.7502 y y y y y y y y 
   36  100   17  1.352e-03  2.263e-02 10.7502 y y y y y y y y 
   37   21   17  1.348e-03  2.256e-02 10.7502 y y y y y y y y Subspace collapsed.
   38   22   17  1.344e-03  2.248e-02 10.7502 y y y y y y y y 
   39   23   17  1.338e-03  2.238e-02 10.7502 y y y y y y y y 
   40   23   17  1.338e-03  2.238e-02 10.7502 y y y y y y y y 
   41   24   17  1.341e-03  2.243e-02 10.7502 y y y y y y y y 
   42   25   17  1.338e-03  2.237e-02 10.7502 y y y y y y y y 
   43   25   17  1.338e-03  2.237e-02 10.7502 y y y y y y y y 
   44   27   17  1.338e-03  2.237e-02 10.7502 y y y y y y y y 
   45   27   17  1.338e-03  2.237e-02 10.7502 y y y y y y y y 
   46   27   17  1.338e-03  2.237e-02 10.7502 y y y y y y y y 
   47   47   17  5.873e-04  9.487e-03 10.7502 y y y y y y y y 
   48   53   17  3.154e-04  5.081e-03 10.7502 y y y y y y y y 
   49   58   17  1.663e-04  2.689e-03 10.7502 y y y y y y y y 
   50   59   17  1.661e-04  2.686e-03 10.7502 y y y y y y y y 
   51   60   17  1.660e-04  2.685e-03 10.7502 y y y y y y y y 
   52   60   17  1.660e-04  2.685e-03 10.7502 y y y y y y y y 
   53   60   17  1.660e-04  2.685e-03 10.7502 y y y y y y y y 
   54   64   17  1.657e-04  2.683e-03 10.7502 y y y y y y y y 
   55   64   17  1.657e-04  2.683e-03 10.7502 y y y y y y y y 
   56   65   17  1.652e-04  2.676e-03 10.7502 y y y y y y y y 
   57   66   17  1.665e-04  2.698e-03 10.7502 y y y y y y y y 
   58   67   17  1.679e-04  2.723e-03 10.7502 y y y y y y y y 
   59   68   17  1.676e-04  2.716e-03 10.7502 y y y y y y y y 
--------------------------------------------------------------------------------
  Davidson Summary: 
 ------------------------------------------------------------
  State  0: excitation energy =  10.7502 a.u.   (converged)
  State  1: excitation energy =  10.8210 a.u.   (converged)
  State  2: excitation energy =  11.1511 a.u.   (converged)
  State  3: excitation energy =  11.1557 a.u.   (converged)
  State  4: excitation energy =  11.1770 a.u.   (converged)
  State  5: excitation energy =  11.2246 a.u.   (converged)
  State  6: excitation energy =  11.2277 a.u.   (converged)
  State  7: excitation energy =  11.2400 a.u.   (converged)
  State  8: excitation energy =  11.2528 a.u.   (converged)
  State  9: excitation energy =  11.5422 a.u.   (converged)
  State 10: excitation energy =  11.5695 a.u.   (converged)
  State 11: excitation energy =  11.5698 a.u.   (converged)
  State 12: excitation energy =  11.5817 a.u.   (converged)
  State 13: excitation energy =  11.5845 a.u.   (converged)
  State 14: excitation energy =  11.5885 a.u.   (converged)
  State 15: excitation energy =  11.5892 a.u.   (converged)
  State 16: excitation energy =  11.6090 a.u.   (converged)
  State 17: excitation energy =  12.2180 a.u.   (not converged)
  State 18: excitation energy =  12.2191 a.u.   (not converged)
  State 19: excitation energy =  12.2206 a.u.   (not converged)
 ------------------------------------------------------------


--------------------------------------------------------------------------------
                             Excited State Summary
--------------------------------------------------------------------------------

  Excited state  1 (A)                                             [converged]
  ----------------------------------------------------------------------------
  Term symbol:  2 (-) A                                     R^2 =  4.94282e-09

  Total energy:                                           -425.1292212692 a.u.
  Excitation energy:                                             292.529147 eV

  Osc. strength:                                                      0.000000
  Trans. dip. moment [a.u.]:           [   0.000088,    0.000224,   -0.000075]
  <i|r^2|0> [a.u.]:                    [  -0.000209,    0.002249,    0.000025]

  V1^2 = 0.9551, V2^2 = 0.0449

  Important amplitudes:
     core i     occ j      vir a      vir b          v   
    ------------------------------------------------------
     5 (A) A              22 (A) A                 0.6584
     5 (A) B              21 (A) B                -0.6552
    ------------------------------------------------------
  ----------------------------------------------------------------------------


  Excited state  2 (A)                                             [converged]
  ----------------------------------------------------------------------------
  Term symbol:  3 (-) A                                     R^2 =  1.17777e-09

  Total energy:                                           -425.0584738037 a.u.
  Excitation energy:                                             294.454284 eV

  Osc. strength:                                                      0.088752
  Trans. dip. moment [a.u.]:           [   0.038728,    0.098529,   -0.033089]
  <i|r^2|0> [a.u.]:                    [  -0.093598,    0.993449,    0.009199]

  V1^2 = 0.9495, V2^2 = 0.0505

  Important amplitudes:
     core i     occ j      vir a      vir b          v   
    ------------------------------------------------------
     5 (A) B              21 (A) B                 0.6685
     5 (A) A              22 (A) A                 0.6653
    ------------------------------------------------------
  ----------------------------------------------------------------------------


  Excited state  3 (A)                                             [converged]
  ----------------------------------------------------------------------------
  Term symbol:  4 (-) A                                     R^2 =  6.66044e-11

  Total energy:                                           -424.7283287146 a.u.
  Excitation energy:                                             303.437989 eV

  Osc. strength:                                                      0.000000
  Trans. dip. moment [a.u.]:           [  -0.000023,   -0.000004,   -0.000048]
  <i|r^2|0> [a.u.]:                    [   0.000052,   -0.000041,    0.000024]

  V1^2 = 0.9496, V2^2 = 0.0504

  Important amplitudes:
     core i     occ j      vir a      vir b          v   
    ------------------------------------------------------
     5 (A) B              24 (A) B                -0.5616
     5 (A) A              24 (A) A                 0.5612
    ------------------------------------------------------
  ----------------------------------------------------------------------------


  Excited state  4 (A)                                             [converged]
  ----------------------------------------------------------------------------
  Term symbol:  5 (-) A                                     R^2 =  2.63936e-12

  Total energy:                                           -424.7237918747 a.u.
  Excitation energy:                                             303.561442 eV

  Osc. strength:                                                      0.000000
  Trans. dip. moment [a.u.]:           [  -0.000163,    0.000088,    0.000069]
  <i|r^2|0> [a.u.]:                    [   0.000370,    0.000888,   -0.000043]

  V1^2 = 0.9495, V2^2 = 0.0505

  Important amplitudes:
     core i     occ j      vir a      vir b          v   
    ------------------------------------------------------
     5 (A) B              25 (A) B                -0.5605
     5 (A) A              25 (A) A                 0.5581
    ------------------------------------------------------
  ----------------------------------------------------------------------------


  Excited state  5 (A)                                             [converged]
  ----------------------------------------------------------------------------
  Term symbol:  6 (-) A                                     R^2 =  2.71518e-10

  Total energy:                                           -424.7024402287 a.u.
  Excitation energy:                                             304.142450 eV

  Osc. strength:                                                      0.000000
  Trans. dip. moment [a.u.]:           [   0.000026,    0.000066,   -0.000020]
  <i|r^2|0> [a.u.]:                    [  -0.000060,    0.000679,    0.000008]

  V1^2 = 0.9283, V2^2 = 0.0717

  Important amplitudes:
     core i     occ j      vir a      vir b          v   
    ------------------------------------------------------
     5 (A) A              23 (A) A                 0.5980
     5 (A) B              23 (A) B                -0.5973
    ------------------------------------------------------
  ----------------------------------------------------------------------------


  Excited state  6 (A)                                             [converged]
  ----------------------------------------------------------------------------
  Term symbol:  7 (-) A                                     R^2 =  6.49719e-11

  Total energy:                                           -424.6549142960 a.u.
  Excitation energy:                                             305.435697 eV

  Osc. strength:                                                      0.112936
  Trans. dip. moment [a.u.]:           [   0.053534,    0.012591,    0.109853]
  <i|r^2|0> [a.u.]:                    [  -0.121142,    0.125504,   -0.056031]

  V1^2 = 0.9410, V2^2 = 0.0590

  Important amplitudes:
     core i     occ j      vir a      vir b          v   
    ------------------------------------------------------
     5 (A) A              24 (A) A                 0.5949
     5 (A) B              24 (A) B                 0.5943
    ------------------------------------------------------
  ----------------------------------------------------------------------------


  Excited state  7 (A)                                             [converged]
  ----------------------------------------------------------------------------
  Term symbol:  8 (-) A                                     R^2 =  3.76905e-11

  Total energy:                                           -424.6517776543 a.u.
  Excitation energy:                                             305.521049 eV

  Osc. strength:                                                      0.097615
  Trans. dip. moment [a.u.]:           [  -0.094180,    0.050598,    0.040140]
  <i|r^2|0> [a.u.]:                    [   0.211390,    0.513373,   -0.025447]

  V1^2 = 0.9290, V2^2 = 0.0710

  Important amplitudes:
     core i     occ j      vir a      vir b          v   
    ------------------------------------------------------
     5 (A) A              25 (A) A                -0.5628
     5 (A) B              25 (A) B                -0.5348
    ------------------------------------------------------
  ----------------------------------------------------------------------------


  Excited state  8 (A)                                             [converged]
  ----------------------------------------------------------------------------
  Term symbol:  9 (-) A                                     R^2 =  3.15710e-11

  Total energy:                                           -424.6394666803 a.u.
  Excitation energy:                                             305.856048 eV

  Osc. strength:                                                      0.015302
  Trans. dip. moment [a.u.]:           [   0.037302,   -0.020048,   -0.015772]
  <i|r^2|0> [a.u.]:                    [  -0.083604,   -0.203594,    0.010018]

  V1^2 = 0.8591, V2^2 = 0.1409

  Important amplitudes:
     core i     occ j      vir a      vir b          v   
    ------------------------------------------------------
     5 (A) B              22 (A) B                -0.8476
     5 (A) B              25 (A) B                 0.2631
    ------------------------------------------------------
  ----------------------------------------------------------------------------


  Excited state  9 (A)                                             [converged]
  ----------------------------------------------------------------------------
  Term symbol:  10 (-) A                                    R^2 =  1.71154e-10

  Total energy:                                           -424.6266309356 a.u.
  Excitation energy:                                             306.205326 eV

  Osc. strength:                                                      0.030410
  Trans. dip. moment [a.u.]:           [  -0.024580,   -0.056924,    0.014464]
  <i|r^2|0> [a.u.]:                    [   0.036293,   -0.606202,   -0.025397]

  V1^2 = 0.9155, V2^2 = 0.0845

  Important amplitudes:
     core i     occ j      vir a      vir b          v   
    ------------------------------------------------------
     5 (A) B              23 (A) B                -0.6282
     5 (A) A              23 (A) A                -0.6279
    ------------------------------------------------------
  ----------------------------------------------------------------------------


  Excited state 10 (A)                                             [converged]
  ----------------------------------------------------------------------------
  Term symbol:  11 (-) A                                    R^2 =  8.39395e-10

  Total energy:                                           -424.3372453536 a.u.
  Excitation energy:                                             314.079908 eV

  Osc. strength:                                                      0.000037
  Trans. dip. moment [a.u.]:           [   0.000729,    0.001927,   -0.000718]
  <i|r^2|0> [a.u.]:                    [  -0.002134,    0.019163,   -0.000151]

  V1^2 = 0.9136, V2^2 = 0.0864

  Important amplitudes:
     core i     occ j      vir a      vir b          v   
    ------------------------------------------------------
     5 (A) A              26 (A) A                -0.6193
     5 (A) B              26 (A) B                 0.5718
    ------------------------------------------------------
  ----------------------------------------------------------------------------


  Excited state 11 (A)                                             [converged]
  ----------------------------------------------------------------------------
  Term symbol:  12 (-) A                                    R^2 =  8.17704e-11

  Total energy:                                           -424.3099269648 a.u.
  Excitation energy:                                             314.823279 eV

  Osc. strength:                                                      0.000094
  Trans. dip. moment [a.u.]:           [   0.002885,   -0.001537,   -0.001217]
  <i|r^2|0> [a.u.]:                    [  -0.006314,   -0.015714,    0.000733]

  V1^2 = 0.8950, V2^2 = 0.1050

  Important amplitudes:
     core i     occ j      vir a      vir b          v   
    ------------------------------------------------------
     5 (A) A              28 (A) A                -0.5791
     5 (A) B              28 (A) B                 0.5223
    ------------------------------------------------------
  ----------------------------------------------------------------------------


  Excited state 12 (A)                                             [converged]
  ----------------------------------------------------------------------------
  Term symbol:  13 (-) A                                    R^2 =  4.34753e-11

  Total energy:                                           -424.3096641763 a.u.
  Excitation energy:                                             314.830430 eV

  Osc. strength:                                                      0.000003
  Trans. dip. moment [a.u.]:           [   0.000147,    0.000547,   -0.000130]
  <i|r^2|0> [a.u.]:                    [  -0.000448,    0.005466,   -0.000059]

  V1^2 = 0.8953, V2^2 = 0.1047

  Important amplitudes:
     core i     occ j      vir a      vir b          v   
    ------------------------------------------------------
     5 (A) A              27 (A) A                 0.5506
     5 (A) B              27 (A) B                -0.5505
    ------------------------------------------------------
  ----------------------------------------------------------------------------


  Excited state 13 (A)                                             [converged]
  ----------------------------------------------------------------------------
  Term symbol:  14 (-) A                                    R^2 =  1.22597e-11

  Total energy:                                           -424.2978014889 a.u.
  Excitation energy:                                             315.153230 eV

  Osc. strength:                                                      0.000721
  Trans. dip. moment [a.u.]:           [   0.004175,    0.008617,   -0.001277]
  <i|r^2|0> [a.u.]:                    [  -0.011057,    0.086174,   -0.001241]

  V1^2 = 0.8876, V2^2 = 0.1124

  Important amplitudes:
     core i     occ j      vir a      vir b          v   
    ------------------------------------------------------
     5 (A) B              29 (A) B                 0.5373
     5 (A) A              29 (A) A                -0.5351
    ------------------------------------------------------
  ----------------------------------------------------------------------------


  Excited state 14 (A)                                             [converged]
  ----------------------------------------------------------------------------
  Term symbol:  15 (-) A                                    R^2 =  1.54920e-10

  Total energy:                                           -424.2949742370 a.u.
  Excitation energy:                                             315.230164 eV

  Osc. strength:                                                      0.033991
  Trans. dip. moment [a.u.]:           [  -0.033036,   -0.057523,   -0.001042]
  <i|r^2|0> [a.u.]:                    [   0.084286,   -0.575996,    0.012680]

  V1^2 = 0.9060, V2^2 = 0.0940

  Important amplitudes:
     core i     occ j      vir a      vir b          v   
    ------------------------------------------------------
     5 (A) B              26 (A) B                 0.6715
     5 (A) A              26 (A) A                 0.5579
    ------------------------------------------------------
  ----------------------------------------------------------------------------


  Excited state 15 (A)                                             [converged]
  ----------------------------------------------------------------------------
  Term symbol:  16 (-) A                                    R^2 =  4.86264e-12

  Total energy:                                           -424.2909513211 a.u.
  Excitation energy:                                             315.339633 eV

  Osc. strength:                                                      0.035456
  Trans. dip. moment [a.u.]:           [   0.054002,   -0.030508,   -0.027248]
  <i|r^2|0> [a.u.]:                    [  -0.118096,   -0.311803,    0.016100]

  V1^2 = 0.8981, V2^2 = 0.1019

  Important amplitudes:
     core i     occ j      vir a      vir b          v   
    ------------------------------------------------------
     5 (A) B              28 (A) B                -0.6147
     5 (A) A              28 (A) A                -0.5586
    ------------------------------------------------------
  ----------------------------------------------------------------------------


  Excited state 16 (A)                                             [converged]
  ----------------------------------------------------------------------------
  Term symbol:  17 (-) A                                    R^2 =  1.61595e-10

  Total energy:                                           -424.2903133671 a.u.
  Excitation energy:                                             315.356992 eV

  Osc. strength:                                                      0.034954
  Trans. dip. moment [a.u.]:           [   0.023633,   -0.013174,    0.061579]
  <i|r^2|0> [a.u.]:                    [  -0.047124,   -0.130339,   -0.029062]

  V1^2 = 0.8993, V2^2 = 0.1007

  Important amplitudes:
     core i     occ j      vir a      vir b          v   
    ------------------------------------------------------
     5 (A) B              27 (A) B                -0.5627
     5 (A) A              27 (A) A                -0.5552
    ------------------------------------------------------
  ----------------------------------------------------------------------------


  Excited state 17 (A)                                             [converged]
  ----------------------------------------------------------------------------
  Term symbol:  18 (-) A                                    R^2 =  1.72905e-11

  Total energy:                                           -424.2704820197 a.u.
  Excitation energy:                                             315.896631 eV

  Osc. strength:                                                      0.004224
  Trans. dip. moment [a.u.]:           [  -0.007941,   -0.020703,    0.007353]
  <i|r^2|0> [a.u.]:                    [  -0.002898,   -0.231189,   -0.024362]

  V1^2 = 0.8963, V2^2 = 0.1037

  Important amplitudes:
     core i     occ j      vir a      vir b          v   
    ------------------------------------------------------
     5 (A) A              29 (A) A                 0.6380
     5 (A) B              29 (A) B                 0.6367
    ------------------------------------------------------
  ----------------------------------------------------------------------------


  Excited state 18 (A)                                         [not converged]
  ----------------------------------------------------------------------------
  Term symbol:  19 (-) A                                    R^2 =  1.96295e-03

  Total energy:                                           -423.6614242432 a.u.
  Excitation energy:                                             332.469936 eV


  V1^2 = 0.8681, V2^2 = 0.1319

  Important amplitudes:
     core i     occ j      vir a      vir b          v   
    ------------------------------------------------------
     5 (A) A              31 (A) A                 0.4715
     5 (A) A              34 (A) A                 0.4711
    ------------------------------------------------------
  ----------------------------------------------------------------------------


  Excited state 19 (A)                                         [not converged]
  ----------------------------------------------------------------------------
  Term symbol:  20 (-) A                                    R^2 =  1.99986e-05

  Total energy:                                           -423.6603396090 a.u.
  Excitation energy:                                             332.499450 eV


  V1^2 = 0.8626, V2^2 = 0.1374

  Important amplitudes:
     core i     occ j      vir a      vir b          v   
    ------------------------------------------------------
     5 (A) A              35 (A) A                -0.4745
     5 (A) B              34 (A) B                 0.4607
    ------------------------------------------------------
  ----------------------------------------------------------------------------


  Excited state 20 (A)                                         [not converged]
  ----------------------------------------------------------------------------
  Term symbol:  21 (-) A                                    R^2 =  2.71618e-03

  Total energy:                                           -423.6588235232 a.u.
  Excitation energy:                                             332.540705 eV


  V1^2 = 0.8672, V2^2 = 0.1328

  Important amplitudes:
     core i     occ j      vir a      vir b          v   
    ------------------------------------------------------
     5 (A) B              35 (A) B                 0.4892
     5 (A) A              34 (A) A                 0.4596
    ------------------------------------------------------
  ----------------------------------------------------------------------------


--------------------------------------------------------------------------------
  Time of ADC calculation:  CPU 1396.33 s  wall 1441.23 s
================================================================================
 
 --------------------------------------------------------------
 
                    Orbital Energies (a.u.)
 --------------------------------------------------------------
 
 Alpha MOs
 -- Occupied --
-26.739 -26.739 -26.737 -26.615 -11.970  -2.135  -2.029  -2.026
 -1.864  -1.314  -1.210  -1.209  -1.157  -1.055  -1.054  -1.031
 -1.024  -1.022  -1.009  -0.925  -0.922
 -- Virtual --
 -0.308   0.107   0.112   0.115   0.339   0.375   0.376   0.400
  0.927   1.016   1.018   1.041   1.056   1.058   1.168   1.207
  1.231   1.288   1.289   1.315   1.322   1.324   1.415   1.486
  1.625   1.625   1.736   1.746   1.784   1.802   1.807   1.811
  1.848   1.858   1.903   1.923   1.943   1.989   1.994   2.065
  2.067   2.456   2.463   2.545   2.810   2.811   3.100   3.102
  3.125   3.587   4.230   4.391   4.395   4.733
 
 Beta MOs
 -- Occupied --
-26.739 -26.739 -26.737 -26.566 -11.970  -2.135  -2.029  -2.026
 -1.670  -1.314  -1.210  -1.209  -1.157  -1.055  -1.054  -1.024
 -1.023  -1.009  -0.870  -0.870
 -- Virtual --
 -0.308  -0.112   0.107   0.112   0.117   0.344   0.375   0.378
  0.400   0.953   1.016   1.018   1.044   1.059   1.059   1.220
  1.254   1.288   1.290   1.315   1.320   1.325   1.383   1.418
  1.497   1.625   1.626   1.747   1.747   1.783   1.809   1.812
  1.816   1.927   1.946   1.947   1.961   1.968   1.992   1.994
  2.067   2.069   2.456   2.463   2.547   2.810   2.811   3.100
  3.102   3.125   3.627   4.231   4.391   4.395   4.734
 --------------------------------------------------------------
 
          Ground-State Mulliken Net Atomic Charges

     Atom                 Charge (a.u.)    Spin (a.u.)
  --------------------------------------------------------
      1 C                     1.303299      -0.003558
      2 F                    -0.108272      -0.000290
      3 F                    -0.108411      -0.000288
      4 F                     0.026138       1.004395
      5 F                    -0.112755      -0.000259
  --------------------------------------------------------
  Sum of atomic charges =     1.000000
  Sum of spin   charges =     1.000000

 -----------------------------------------------------------------
                    Cartesian Multipole Moments
 -----------------------------------------------------------------
    Charge (ESU x 10^10)
                 4.8032
    Dipole Moment (Debye)
         X      -3.0330      Y      12.2444      Z      -0.4211
       Tot      12.6214
    Quadrupole Moments (Debye-Ang)
        XX     -18.6173     XY      -7.3698     YY      11.8148
        XZ      -0.2385     YZ      -1.6209     ZZ     -20.9799
    Octopole Moments (Debye-Ang^2)
       XXX      41.9920    XXY     -44.5164    XYY      -4.3289
       YYY     -59.3620    XXZ       1.4081    XYZ       0.3138
       YYZ      -4.4278    XZZ      13.6586    YZZ     -48.7929
       ZZZ      -0.6803
    Hexadecapole Moments (Debye-Ang^3)
      XXXX    -139.3187   XXXY      82.3870   XXYY    -159.9085
      XYYY      31.6372   YYYY    -635.4111   XXXZ       4.2012
      XXYZ       8.7153   XYYZ       3.7709   YYYZ      13.2314
      XXZZ     -36.8303   XYZZ      25.2529   YYZZ    -158.2626
      XZZZ       8.9479   YZZZ      21.4231   ZZZZ     -87.1061
 -----------------------------------------------------------------
Archival summary:
1\1\tp-linux1\SP\HF\6-31G*\41(1+,2)\thomas\WedMar2216:57:262017WedMar2216:57:262017\0\\#,HF,6-31G*,\\1,2\C\F,1,1.26622\F,1,1.26638,2,113.795\F,1,1.27117,2,113.327,3,-131.363,0\F,1,2.85276,2,103.353,3,111.626,0\\HF=-435.122367\\@

 Total job time:  1462.00s(wall), 1411.53s(cpu) 
 Wed Mar 22 16:57:26 2017

        *************************************************************
        *                                                           *
        *  Thank you very much for using Q-Chem.  Have a nice day.  *
        *                                                           *
        *************************************************************


0 sent ACK to 0 
now end server 0 ... 
cleanup process ... done
