
Running Job 1 of 1 ddtraj1t39.inp
qchem ddtraj1t39.inp_8757.0 /scratch/qchem/qchem8757/ 1
/mnt/software/qchem/bin/mpi/mpirun_qchem -machinefile /mnt/software/qchem/bin/mpi/machines -np 1 /mnt/software/qchem/exe/qcprog.exe ddtraj1t39.inp_8757.0 /scratch/qchem/qchem8757/

Process 0 of 1 is on tp-linux1 - thread support 0
initial socket setup ...start
initial socket setup ...done 
now start server 0 ... 

cmd = ssh tp-linux1 /mnt/software/qchem/bin/get_hostid 930367547 > /scratch/qchem/qchem8757/lic.dat
                  Welcome to Q-Chem
     A Quantum Leap Into The Future Of Chemistry


 Q-Chem 4.3, Q-Chem, Inc., Pleasanton, CA (2015)

 Y. Shao,  Z. Gan,  E. Epifanovsky,  A. T. B. Gilbert,  M. Wormit,  
 J. Kussmann,  A. W. Lange,  A. Behn,  J. Deng,  X. Feng,  D. Ghosh,  
 M. Goldey,  P. R. Horn,  L. D. Jacobson,  I. Kaliman,  R. Z. Khaliullin,  
 T. Kus,  A. Landau,  J. Liu,  E. I. Proynov,  Y. M. Rhee,  R. M. Richard,  
 M. A. Rohrdanz,  R. P. Steele,  E. J. Sundstrom,  H. L. Woodcock III,  
 P. M. Zimmerman,  D. Zuev,  B. Albrecht,  E. Alguire,  B. Austin,  
 S. A. Baeppler,  G. J. O. Beran,  Y. A. Bernard,  E. Berquist,  
 K. Brandhorst,  K. B. Bravaya,  S. T. Brown,  D. Casanova,  C.-M. Chang,  
 Y. Chen,  S. H. Chien,  K. D. Closser,  D. L. Crittenden,  M. Diedenhofen,  
 R. A. DiStasio Jr.,  H. Do,  A. D. Dutoi,  R. G. Edgar,  P.-T. Fang,  
 S. Fatehi,  Q. Feng,  L. Fusti-Molnar,  A. Ghysels,  
 A. Golubeva-Zadorozhnaya,  J. Gomes,  A. Gunina,  M. W. D. Hanson-Heine,  
 P. H. P. Harbach,  A. W. Hauser,  E. G. Hohenstein,  Z. C. Holden,  K. Hui,  
 T.-C. Jagau,  H. Ji,  B. Kaduk,  K. Khistyaev,  Jaehoon Kim,  Jihan Kim,  
 R. A. King,  P. Klunzinger,  D. Kosenkov,  T. Kowalczyk,  C. M. Krauter,  
 K. U. Lao,  A. Laurent,  K. V. Lawler,  S. Lehtola,  S. V. Levchenko,  
 C. Y. Lin,  Y.-S. Lin,  F. Liu,  E. Livshits,  R. C. Lochan,  A. Luenser,  
 P. Manohar,  S. F. Manzer,  S.-P. Mao,  N. Mardirossian,  A. V. Marenich,  
 L. A. Martinez-Martinez,  S. A. Maurer,  N. J. Mayhall,  K. Nanda,  
 C. M. Oana,  R. Olivares-Amaya,  D. P. O'Neill,  J. A. Parkhill,  
 T. M. Perrine,  R. Peverati,  P. A. Pieniazek,  F. Plasser,  A. Prociuk,  
 D. R. Rehn,  E. Rosta,  N. J. Russ,  N. Sergueev,  S. M. Sharada,  
 S. Sharma,  D. W. Small,  A. Sodt,  T. Stauch,  T. Stein,  D. Stuck,  
 Y.-C. Su,  A. J. W. Thom,  T. Tsuchimochi,  L. Vogt,  O. Vydrov,  T. Wang,  
 M. A. Watson,  J. Wenzel,  A. White,  C. F. Williams,  V. Vanovschi,  
 S. Yeganeh,  S. R. Yost,  Z.-Q. You,  I. Y. Zhang,  X. Zhang,  Y. Zhao,  
 B. R. Brooks,  G. K. L. Chan,  D. M. Chipman,  C. J. Cramer,  
 W. A. Goddard III,  M. S. Gordon,  W. J. Hehre,  A. Klamt,  
 H. F. Schaefer III,  M. W. Schmidt,  C. D. Sherrill,  D. G. Truhlar,  
 A. Warshel,  X. Xu,  A. Aspuru-Guzik,  R. Baer,  A. T. Bell,  N. A. Besley,  
 J.-D. Chai,  A. Dreuw,  B. D. Dunietz,  T. R. Furlani,  S. R. Gwaltney,  
 C.-P. Hsu,  Y. Jung,  J. Kong,  D. S. Lambrecht,  W. Liang,  C. Ochsenfeld,  
 V. A. Rassolov,  L. V. Slipchenko,  J. E. Subotnik,  T. Van Voorhis,  
 J. M. Herbert,  A. I. Krylov,  P. M. W. Gill,  M. Head-Gordon

 Contributors to earlier versions of Q-Chem not listed above: 
 R. D. Adamson,  J. Baker,  E. F. C. Byrd,  A. K. Chakraborty,  C.-L. Cheng,  
 H. Dachsel,  R. J. Doerksen,  G. Hawkins,  A. Heyden,  S. Hirata,  
 G. Kedziora,  F. J. Keil,  C. Kelley,  P. P. Korambath,  W. Kurlancheek,  
 A. M. Lee,  M. S. Lee,  D. Liotard,  I. Lotan,  P. E. Maslen,  N. Nair,  
 D. Neuhauser,  R. Olson,  B. Peters,  J. Ritchie,  N. E. Schultz,  
 N. Shenvi,  A. C. Simmonett,  K. S. Thanthiriwatte,  Q. Wu,  W. Zhang

 Please cite Q-Chem as follows:
 Y. Shao et al., Mol. Phys. 113, 184-215 (2015)
 DOI: 10.1080/00268976.2014.952696

 Q-Chem 4.3.0 for Intel X86 Linux

 Parts of Q-Chem use Armadillo 5.200.1 (Boston Tea Smuggler).
 http://arma.sourceforge.net/

 Q-Chem begins on Wed Mar 22 16:07:28 2017  

Host: 
0

     Scratch files written to /scratch/qchem/qchem8757//
 Nov1815 1189b_ 19540  19532 5443   
 Parallel job on  1  processors
Processing $rem in /mnt/software/qchem/config/preferences.
 MEM_TOTAL  2000 

Checking the input file for inconsistencies... 	...done.

--------------------------------------------------------------
User input:
--------------------------------------------------------------
$comment
XAS calculation for valence excited states for CF4+ using cvs-adc(2) + 6-31G* basis set
job 1 - determination of HF orbitals
$end

$molecule
1 2
6  -0.579465  2.690124  -0.141626
9  0.681983  2.587021  -0.0994
9  -1.047767  3.529694  0.682913
9  -1.479552  0.218427  0.828662
9  -1.027731  2.848508  -1.32272
$end

$comment
cvs-adc(2) calculation
$end

$rem
mem_total 3000
mem_static 1500
sym_ignore true
method cvs-adc(2)
basis 6-31G*
ee_singlets 20
cc_rest_occ 5                  !only excitations from the lowest N orbitals
unrestricted  true
max_scf_cycles 200
SCF_ALGORITHM = DIIS_GDM
SCF_CONVERGENCE = 7
THRESH = 10
$end
--------------------------------------------------------------
 ----------------------------------------------------------------
             Standard Nuclear Orientation (Angstroms)
    I     Atom           X                Y                Z
 ----------------------------------------------------------------
    1      C      -0.5794650000     2.6901240000    -0.1416260000
    2      F       0.6819830000     2.5870210000    -0.0994000000
    3      F      -1.0477670000     3.5296940000     0.6829130000
    4      F      -1.4795520000     0.2184270000     0.8286620000
    5      F      -1.0277310000     2.8485080000    -1.3227200000
 ----------------------------------------------------------------
 Nuclear Repulsion Energy =   176.6228552637 hartrees
 There are       21 alpha and       20 beta electrons
 Requested basis set is 6-31G(d)
 There are 20 shells and 75 basis functions

 Total QAlloc Memory Limit   3000 MB
 Mega-Array Size      1467 MB
 MEM_STATIC part      1500 MB

                       Distance Matrix (Angstroms)
             C (  1)   F (  2)   F (  3)   F (  4)
   F (  2)  1.266359
   F (  3)  1.266511  2.119595
   F (  4)  2.803730  3.338229  3.342480
   F (  5)  1.273189  2.118492  2.118249  3.427815
 
 tim1(1): 
  0.000000000000000E+000
 tim1(2): 
  0.000000000000000E+000
 A cutoff of  1.0D-10 yielded    187 shell pairs
 There are      2866 function pairs
 
 -------------------------------------------------------
 OpenMP Integral Computing Module                       
 Release: version 1.0, May 2013, Q-Chem Inc. Pittsburgh 
 -------------------------------------------------------
 Integral Job Info:
 Integral job number is                      11
 Integral operator is                         1
 short-range coefficients                     0
 long-range coefficients              100000000
 Omega coefficients                           0
 if combine SR and LR in K                    0
 Integral screening is                        0
 Integral computing path is                   2
 max size of driver memory is            800000
 size of driver memory is                593474
 size of scratch memory is              2260544
 max col of scratch BK array               1296
 max len of scratch array in speh3          155
 max len of scratch index in speh4           18
 max int batch size is                      520
 min int batch size is                       52
 fixed nKL is                                52
 max L of basis functions is                  2
 order of int derivative is                   0
 number of shells is                         20
 number of basis is                          75
 number of cartesian basis is                75
 number of contracted shell pairs           187
 number of primitive shell pairs            946
 maxK2 (contraction) of shell pair           36
 max number of K2 of shell pair               1
 max number of CS2 of shell pair             32
 max number of PS2 of shell pair            192
 mem total for path MDJ                   18100
 -------------------------------------------------------
 Smallest overlap matrix eigenvalue = 3.30E-03

 Scale SEOQF with 1.000000e+00/1.000000e-01/1.000000e+00

 Standard Electronic Orientation quadrupole field applied
 Nucleus-field energy     =     0.0000000086 hartrees
 Guess from superposition of atomic densities
 Warning:  Energy on first SCF cycle will be non-variational
 An unrestricted Hartree-Fock SCF calculation will be
 performed using Pulay DIIS + Geometric Direct Minimization
 SCF converges when RMS gradient is below 1.0E-07
 ---------------------------------------
  Cycle       Energy         DIIS Error
 ---------------------------------------
    1    -436.0246329973      8.25E-02
    2    -434.9069388298      1.85E-02
    3    -435.0727661627      9.93E-03 Done DIIS. Switching to GDM
    4    -435.1185090785      9.49E-03 Normal BFGS step
    5    -435.1199062937      1.12E-02 Normal BFGS step
    6    -435.1204438823      2.79E-03 Normal BFGS step
    7    -435.1204890527      2.76E-03 Normal BFGS step
    8    -435.1205042740      2.71E-03 Normal BFGS step
    9    -435.1205280365      2.60E-03 Normal BFGS step
   10    -435.1205719278      2.31E-03 Normal BFGS step
   11    -435.1206484678      2.14E-03 Normal BFGS step
   12    -435.1207391257      2.05E-03 Normal BFGS step
   13    -435.1207945151      1.22E-03 Normal BFGS step
   14    -435.1208081819      3.07E-04 Normal BFGS step
   15    -435.1208092514      8.98E-05 Normal BFGS step
   16    -435.1208093402      6.01E-05 Normal BFGS step
   17    -435.1208093551      3.15E-05 Normal BFGS step
   18    -435.1208093601      1.67E-05 Normal BFGS step
   19    -435.1208093628      1.26E-05 Normal BFGS step
   20    -435.1208093634      1.26E-05 Normal BFGS step
   21    -435.1208093639      1.26E-05 Normal BFGS step
   22    -435.1208093644      1.26E-05 Normal BFGS step
   23    -435.1208093657      1.54E-05 Normal BFGS step
   24    -435.1208093690      2.64E-05 Normal BFGS step
   25    -435.1208093775      4.46E-05 Normal BFGS step
   26    -435.1208093994      7.35E-05 Normal BFGS step
   27    -435.1208094566      1.20E-04 Normal BFGS step
   28    -435.1208096005      1.93E-04 Normal BFGS step
   29    -435.1208098688      2.99E-04 Normal BFGS step
   30    -435.1208102693      3.90E-04 Normal BFGS step
   31    -435.1208110622      8.89E-04 Normal BFGS step
   32    -435.1208123256      1.70E-04 Normal BFGS step
   33    -435.1208129626      1.76E-04 Normal BFGS step
   34    -435.1208118380      6.02E-04 Line search: overstep
   35    -435.1208132965      3.50E-04 Normal BFGS step
   36    -435.1208137384      5.35E-04 Normal BFGS step
   37    -435.1208144516      4.62E-04 Normal BFGS step
   38    -435.1208157495      4.26E-04 Normal BFGS step
   39    -435.1208172064      1.94E-04 Dog-leg BFGS step
   40    -435.1207460417      5.79E-03 Line search: overstep
   41    -435.1208176601      2.37E-04 Dog-leg BFGS step
   42    -435.1208178170      9.01E-04 Normal BFGS step
   43    -435.1208189776      1.57E-04 Normal BFGS step
   44    -435.1208195937      1.24E-04 Normal BFGS step
   45    -435.1208107741      1.15E-03 Line search: overstep
   46    -435.1208201141      1.92E-04 Dog-leg BFGS step
   47    -435.1208207744      6.92E-04 Normal BFGS step
   48    -435.1208216115      1.49E-04 Normal BFGS step
   49    -435.1208223415      1.51E-04 Normal BFGS step
   50    -435.1208177360      1.04E-03 Line search: overstep
   51    -435.1208227366      2.33E-04 Dog-leg BFGS step
   52    -435.1208231146      7.10E-04 Normal BFGS step
   53    -435.1208239412      8.51E-05 Normal BFGS step
   54    -435.1208244627      7.93E-05 Normal BFGS step
   55    -435.1208162524      1.31E-03 Line search: overstep
   56    -435.1208247488      1.38E-04 Dog-leg BFGS step
   57    -435.1208249562      6.45E-04 Normal BFGS step
   58    -435.1208255511      4.03E-05 Normal BFGS step
   59    -435.1208258314      7.17E-05 Normal BFGS step
   60    -435.1208243296      4.97E-04 Line search: overstep
   61    -435.1208260627      1.53E-04 Normal BFGS step
   62    -435.1208261850      4.29E-04 Normal BFGS step
   63    -435.1208264733      1.10E-04 Normal BFGS step
   64    -435.1208266415      6.43E-05 Normal BFGS step
   65    -435.1208267870      3.80E-04 Normal BFGS step
   66    -435.1208270134      5.86E-05 Normal BFGS step
   67    -435.1208271377      6.18E-05 Normal BFGS step
   68    -435.1208267509      2.55E-04 Line search: overstep
   69    -435.1208272345      8.71E-05 Normal BFGS step
   70    -435.1208273041      1.86E-04 Normal BFGS step
   71    -435.1208273830      6.58E-05 Normal BFGS step
   72    -435.1208274525      6.44E-05 Normal BFGS step
   73    -435.1208275400      7.65E-05 Normal BFGS step
   74    -435.1208276202      5.53E-05 Normal BFGS step
   75    -435.1208276623      4.95E-05 Normal BFGS step
   76    -435.1208276830      7.28E-05 Normal BFGS step
   77    -435.1208276768      4.36E-05 Line search: overstep
   78    -435.1208277033      3.74E-05 Normal BFGS step
   79    -435.1208277159      3.51E-05 Normal BFGS step
   80    -435.1208277284      3.19E-05 Normal BFGS step
   81    -435.1208277333      2.85E-05 Normal BFGS step
   82    -435.1208277412      2.28E-05 Normal BFGS step
   83    -435.1208277448      2.32E-05 Normal BFGS step
   84    -435.1208277488      3.57E-05 Normal BFGS step
   85    -435.1208277552      2.74E-05 Normal BFGS step
   86    -435.1208277663      1.84E-05 Normal BFGS step
   87    -435.1208277736      2.15E-05 Normal BFGS step
   88    -435.1208277774      1.32E-05 Normal BFGS step
   89    -435.1208277788      4.59E-06 Normal BFGS step
   90    -435.1208277791      2.62E-06 Normal BFGS step
   91    -435.1208277792      1.35E-06 Normal BFGS step
   92    -435.1208277792      3.81E-07 Normal BFGS step
   93    -435.1208277792      1.97E-07 Normal BFGS step
   94    -435.1208277792      4.62E-08 Convergence criterion met
 ---------------------------------------
 <S^2> = 0.7532
 SCF time:  CPU 13.92 s  wall 19.48 s
 SCF   energy in the final basis set = -435.1208277792
 Total energy in the final basis set = -435.1208277792
================================================================================
|                                                                              |
|                                 A D C  M A N                                 |
|                                                                              |
 ------------------------------------------------------------------------------ 
|                                                                              |
| Components:                                                                  |
|                                                                              |
| - libvmm - 1.2-release                                                       |
|   Authors:                                                                   |
|   Evgeny Epifanovsky, Ilya Kaliman                                           |
|                                                                              |
| - libtensor - 2.4-trunk                                                      |
|   Authors:                                                                   |
|   Evgeny Epifanovsky, Michael Wormit, Dmitry Zuev, Sam Manzer                |
|                                                                              |
| - libwfa - 1.1-beta                                                          |
|   Authors:                                                                   |
|   Felix Plasser, Stefanie Baeppler, Benjamin Thomitzni, Michael Wormit       |
|                                                                              |
| - libadc - 1.0-beta                                                          |
|   Authors:                                                                   |
|   Michael Wormit, Philipp H. P. Harbach, Caroline Krauter, Dirk Rehn,        |
|   Matthias Schneider, Jan Wenzel                                             |
|                                                                              |
| - adcman - 2.4-beta                                                          |
|   Authors:                                                                   |
|   Michael Wormit, Philipp H. P. Harbach, Caroline Krauter, Dirk Rehn,        |
|   Jan Wenzel, Andreas Dreuw                                                  |
|                                                                              |
| Authors of earlier versions of ADCMAN:                                       |
| Andreas Dreuw, Jan Hendrik Starcke, Dirk Rehn, Michael Wormit                |
|                                                                              |
================================================================================

 
 Alpha MOs, Unrestricted
 -- Occupied --                  
-26.739 -26.739 -26.735 -26.620 -11.969  -2.134  -2.028  -2.024
  1 A     2 A     3 A     4 A     5 A     6 A     7 A     8 A                  
 -1.869  -1.313  -1.209  -1.208  -1.156  -1.054  -1.053  -1.036
  9 A    10 A    11 A    12 A    13 A    14 A    15 A    16 A                  
 -1.023  -1.021  -1.008  -0.930  -0.927
 17 A    18 A    19 A    20 A    21 A                                          
 -- Virtual --                   
 -0.309   0.110   0.111   0.113   0.343   0.374   0.377   0.400
 22 A    23 A    24 A    25 A    26 A    27 A    28 A    29 A                  
  0.928   1.017   1.019   1.042   1.053   1.057   1.165   1.207
 30 A    31 A    32 A    33 A    34 A    35 A    36 A    37 A                  
  1.227   1.288   1.290   1.316   1.324   1.326   1.419   1.493
 38 A    39 A    40 A    41 A    42 A    43 A    44 A    45 A                  
  1.623   1.623   1.734   1.745   1.784   1.801   1.803   1.809
 46 A    47 A    48 A    49 A    50 A    51 A    52 A    53 A                  
  1.844   1.853   1.907   1.921   1.946   1.993   1.999   2.070
 54 A    55 A    56 A    57 A    58 A    59 A    60 A    61 A                  
  2.076   2.449   2.458   2.557   2.807   2.808   3.099   3.102
 62 A    63 A    64 A    65 A    66 A    67 A    68 A    69 A                  
  3.125   3.591   4.233   4.386   4.393   4.751
 70 A    71 A    72 A    73 A    74 A    75 A                                  
 
 Beta MOs, Unrestricted
 -- Occupied --                  
-26.739 -26.739 -26.735 -26.572 -11.969  -2.134  -2.028  -2.024
  1 A     2 A     3 A     4 A     5 A     6 A     7 A     8 A                  
 -1.675  -1.314  -1.209  -1.208  -1.157  -1.054  -1.053  -1.023
  9 A    10 A    11 A    12 A    13 A    14 A    15 A    16 A                  
 -1.021  -1.008  -0.875  -0.875
 17 A    18 A    19 A    20 A                                                  
 -- Virtual --                   
 -0.309  -0.117   0.110   0.111   0.116   0.348   0.374   0.379
 21 A    22 A    23 A    24 A    25 A    26 A    27 A    28 A                  
  0.400   0.954   1.017   1.019   1.045   1.057   1.058   1.220
 29 A    30 A    31 A    32 A    33 A    34 A    35 A    36 A                  
  1.251   1.288   1.290   1.316   1.321   1.327   1.379   1.422
 37 A    38 A    39 A    40 A    41 A    42 A    43 A    44 A                  
  1.506   1.623   1.624   1.746   1.748   1.784   1.805   1.810
 45 A    46 A    47 A    48 A    49 A    50 A    51 A    52 A                  
  1.815   1.925   1.942   1.949   1.959   1.969   1.997   1.999
 53 A    54 A    55 A    56 A    57 A    58 A    59 A    60 A                  
  2.070   2.080   2.449   2.458   2.558   2.807   2.808   3.099
 61 A    62 A    63 A    64 A    65 A    66 A    67 A    68 A                  
  3.102   3.126   3.631   4.233   4.386   4.393   4.752
 69 A    70 A    71 A    72 A    73 A    74 A    75 A                          
 

--------------------------------------------------------------------------------
                                   HF Summary                                   
--------------------------------------------------------------------------------
  Energy:                                                 -435.1208277792 a.u.
  Dip. moment [a.u.]:                  [ -54.228528,  181.913805,    0.062188]
  Total dipole [Debye]:                                             482.486037
  <r^2> [a.u.]:                        [ 175.543356, 1024.432108,  109.648107]
  Total <r^2> [a.u.]:                                              1309.623570
--------------------------------------------------------------------------------

--------------------------------------------------------------------------------
                                 MP(2) Summary                                  
--------------------------------------------------------------------------------
  Energy contribution:                                      -0.7575310830 a.u.
  Total energy:                                           -435.8783588622 a.u.
  Dip. moment [a.u.]:                  [ -54.299237,  181.732750,    0.123920]
  Total dipole [Debye]:                                             482.096535
  <r^2> [a.u.]:                        [ 175.369470, 1022.508392,  109.265876]
  Total <r^2> [a.u.]:                                              1307.143738
--------------------------------------------------------------------------------
  Starting Davidson ... 
--------------------------------------------------------------------------------
   It NVec Conv  Avg. Norm  Max. Norm  Conv. states           Remark
--------------------------------------------------------------------------------
        20    0  2.044e-01  1.121e+00 10.9185 n n n n n n n n Guess.
    1   40    0  5.961e-02  6.652e-01 10.7503 n n n n n n n n 
    2   60    0  2.378e-02  3.261e-01 10.7489 n n n n n n n n 
    3   80    0  4.393e-03  5.369e-02 10.7488 n n n n n n n n 
    4  100    0  3.067e-03  3.826e-02 10.7488 n n n n n n n n 
    5   40    0  2.200e-03  2.903e-02 10.7488 n n n n n n n n Subspace collapsed.
    6   60    0  3.497e-03  4.648e-02 10.7488 n n n n n n n n 
    7   80    0  1.836e-03  2.342e-02 10.7488 n n n n n n n n 
    8  100    2  1.870e-03  2.432e-02 10.7488 y y n n n n n n 
    9   40    7  9.037e-04  1.151e-02 10.7488 y y y y n y y y Subspace collapsed.
   10   60    8  7.804e-04  9.315e-03 10.7488 y y y y n y y y 
   11   80    9  3.795e-04  4.995e-03 10.7488 y y y y y y y y 
   12  100   12  4.257e-04  5.905e-03 10.7488 y y y y y y y y 
   13   40   15  2.750e-04  3.954e-03 10.7488 y y y y y y y y Subspace collapsed.
   14   60   16  4.140e-04  5.991e-03 10.7488 y y y y y y y y 
   15   80   16  3.171e-04  5.335e-03 10.7488 y y y y y y y y 
   16  100   17  5.561e-04  1.066e-02 10.7488 y y y y y y y y 
   17   39   17  2.701e-04  5.123e-03 10.7488 y y y y y y y y Subspace collapsed.
   18   57   17  2.676e-04  5.140e-03 10.7488 y y y y y y y y 
   19   58   17  2.675e-04  5.139e-03 10.7488 y y y y y y y y 
   20   59   17  2.676e-04  5.141e-03 10.7488 y y y y y y y y 
   21   59   17  2.676e-04  5.141e-03 10.7488 y y y y y y y y 
   22   79   17  1.895e-04  3.723e-03 10.7488 y y y y y y y y 
   23   79   17  1.895e-04  3.723e-03 10.7488 y y y y y y y y 
   24   83   17  1.976e-04  3.884e-03 10.7488 y y y y y y y y 
   25   94   17  2.229e-04  4.405e-03 10.7488 y y y y y y y y 
   26  100   17  2.228e-04  4.403e-03 10.7488 y y y y y y y y 
   27   31   17  1.843e-04  3.652e-03 10.7488 y y y y y y y y Subspace collapsed.
   28   42   17  2.539e-04  5.044e-03 10.7488 y y y y y y y y 
   29   53   17  2.408e-04  4.797e-03 10.7488 y y y y y y y y 
   30   64   17  3.824e-04  7.638e-03 10.7488 y y y y y y y y 
   31   75   17  1.221e-03  2.440e-02 10.7488 y y y y y y y y 
   32   79   17  1.251e-03  2.500e-02 10.7488 y y y y y y y y 
   33   81   17  1.255e-03  2.508e-02 10.7488 y y y y y y y y 
   34   82   17  1.255e-03  2.507e-02 10.7488 y y y y y y y y 
   35   82   17  1.255e-03  2.507e-02 10.7488 y y y y y y y y 
   36   95   17  1.360e-03  2.261e-02 10.7488 y y y y y y y y 
   37  100   17  5.553e-04  8.832e-03 10.7488 y y y y y y y y 
   38   23   17  2.737e-04  4.346e-03 10.7488 y y y y y y y y Subspace collapsed.
   39   26   17  1.791e-04  2.837e-03 10.7488 y y y y y y y y 
   40   29   17  1.141e-04  1.828e-03 10.7488 y y y y y y y y 
   41   32   17  1.074e-04  1.721e-03 10.7488 y y y y y y y y 
   42   35   17  1.095e-04  1.775e-03 10.7488 y y y y y y y y 
   43   38   17  6.849e-05  1.111e-03 10.7488 y y y y y y y y 
   44   41   17  4.198e-05  6.807e-04 10.7488 y y y y y y y y 
   45   44   17  3.333e-05  5.396e-04 10.7488 y y y y y y y y 
   46   47   17  1.782e-05  2.896e-04 10.7488 y y y y y y y y 
   47   50   17  1.080e-05  1.761e-04 10.7488 y y y y y y y y 
   48   53   17  8.236e-06  1.344e-04 10.7488 y y y y y y y y 
   49   56   18  5.178e-06  8.449e-05 10.7488 y y y y y y y y 
   50   59   18  3.811e-06  6.218e-05 10.7488 y y y y y y y y 
   51   62   18  2.848e-06  4.654e-05 10.7488 y y y y y y y y 
   52   65   18  2.667e-06  4.386e-05 10.7488 y y y y y y y y 
   53   68   18  1.987e-06  3.287e-05 10.7488 y y y y y y y y 
   54   71   18  1.342e-06  2.230e-05 10.7488 y y y y y y y y 
   55   74   18  8.823e-07  1.488e-05 10.7488 y y y y y y y y 
   56   77   18  6.317e-07  1.129e-05 10.7488 y y y y y y y y 
   57   80   18  4.235e-07  7.977e-06 10.7488 y y y y y y y y 
   58   83   18  2.798e-07  5.445e-06 10.7488 y y y y y y y y 
   59   86   19  2.930e-07  5.837e-06 10.7488 y y y y y y y y 
--------------------------------------------------------------------------------
  Davidson Summary: 
 ------------------------------------------------------------
  State  0: excitation energy =  10.7488 a.u.   (converged)
  State  1: excitation energy =  10.8197 a.u.   (converged)
  State  2: excitation energy =  11.1488 a.u.   (converged)
  State  3: excitation energy =  11.1547 a.u.   (converged)
  State  4: excitation energy =  11.1792 a.u.   (converged)
  State  5: excitation energy =  11.2220 a.u.   (converged)
  State  6: excitation energy =  11.2246 a.u.   (converged)
  State  7: excitation energy =  11.2338 a.u.   (converged)
  State  8: excitation energy =  11.2555 a.u.   (converged)
  State  9: excitation energy =  11.5456 a.u.   (converged)
  State 10: excitation energy =  11.5690 a.u.   (converged)
  State 11: excitation energy =  11.5692 a.u.   (converged)
  State 12: excitation energy =  11.5832 a.u.   (converged)
  State 13: excitation energy =  11.5868 a.u.   (converged)
  State 14: excitation energy =  11.5882 a.u.   (converged)
  State 15: excitation energy =  11.5904 a.u.   (converged)
  State 16: excitation energy =  11.6094 a.u.   (converged)
  State 17: excitation energy =  12.2171 a.u.   (converged)
  State 18: excitation energy =  12.2184 a.u.   (converged)
  State 19: excitation energy =  12.2196 a.u.   (not converged)
 ------------------------------------------------------------


--------------------------------------------------------------------------------
                             Excited State Summary
--------------------------------------------------------------------------------

  Excited state  1 (A)                                             [converged]
  ----------------------------------------------------------------------------
  Term symbol:  2 (-) A                                     R^2 =  1.31081e-13

  Total energy:                                           -425.1295198934 a.u.
  Excitation energy:                                             292.490784 eV

  Osc. strength:                                                      0.000001
  Trans. dip. moment [a.u.]:           [  -0.000108,   -0.000276,    0.000093]
  <i|r^2|0> [a.u.]:                    [   0.000259,   -0.002758,   -0.000029]

  V1^2 = 0.9551, V2^2 = 0.0449

  Important amplitudes:
     core i     occ j      vir a      vir b          v   
    ------------------------------------------------------
     5 (A) A              22 (A) A                -0.6592
     5 (A) B              21 (A) B                 0.6552
    ------------------------------------------------------
  ----------------------------------------------------------------------------


  Excited state  2 (A)                                             [converged]
  ----------------------------------------------------------------------------
  Term symbol:  3 (-) A                                     R^2 =  1.90052e-13

  Total energy:                                           -425.0586174035 a.u.
  Excitation energy:                                             294.420139 eV

  Osc. strength:                                                      0.088511
  Trans. dip. moment [a.u.]:           [  -0.038635,   -0.098392,    0.033122]
  <i|r^2|0> [a.u.]:                    [   0.094136,   -0.987178,   -0.008366]

  V1^2 = 0.9495, V2^2 = 0.0505

  Important amplitudes:
     core i     occ j      vir a      vir b          v   
    ------------------------------------------------------
     5 (A) B              21 (A) B                -0.6692
     5 (A) A              22 (A) A                -0.6652
    ------------------------------------------------------
  ----------------------------------------------------------------------------


  Excited state  3 (A)                                             [converged]
  ----------------------------------------------------------------------------
  Term symbol:  4 (-) A                                     R^2 =  1.57143e-13

  Total energy:                                           -424.7295870791 a.u.
  Excitation energy:                                             303.373509 eV

  Osc. strength:                                                      0.000000
  Trans. dip. moment [a.u.]:           [   0.000029,    0.000005,    0.000056]
  <i|r^2|0> [a.u.]:                    [  -0.000066,    0.000048,   -0.000027]

  V1^2 = 0.9495, V2^2 = 0.0505

  Important amplitudes:
     core i     occ j      vir a      vir b          v   
    ------------------------------------------------------
     5 (A) B              23 (A) B                -0.4995
     5 (A) A              23 (A) A                -0.4906
    ------------------------------------------------------
  ----------------------------------------------------------------------------


  Excited state  4 (A)                                             [converged]
  ----------------------------------------------------------------------------
  Term symbol:  5 (-) A                                     R^2 =  1.73122e-13

  Total energy:                                           -424.7236919983 a.u.
  Excitation energy:                                             303.533922 eV

  Osc. strength:                                                      0.000000
  Trans. dip. moment [a.u.]:           [   0.000213,   -0.000115,   -0.000090]
  <i|r^2|0> [a.u.]:                    [  -0.000487,   -0.001153,    0.000054]

  V1^2 = 0.9493, V2^2 = 0.0507

  Important amplitudes:
     core i     occ j      vir a      vir b          v   
    ------------------------------------------------------
     5 (A) B              25 (A) B                 0.5611
     5 (A) A              25 (A) A                -0.5581
    ------------------------------------------------------
  ----------------------------------------------------------------------------


  Excited state  5 (A)                                             [converged]
  ----------------------------------------------------------------------------
  Term symbol:  6 (-) A                                     R^2 =  9.53181e-14

  Total energy:                                           -424.6991765962 a.u.
  Excitation energy:                                             304.201020 eV

  Osc. strength:                                                      0.000000
  Trans. dip. moment [a.u.]:           [  -0.000027,   -0.000072,    0.000023]
  <i|r^2|0> [a.u.]:                    [   0.000063,   -0.000732,   -0.000008]

  V1^2 = 0.9284, V2^2 = 0.0716

  Important amplitudes:
     core i     occ j      vir a      vir b          v   
    ------------------------------------------------------
     5 (A) B              24 (A) B                 0.5242
     5 (A) A              24 (A) A                -0.5156
    ------------------------------------------------------
  ----------------------------------------------------------------------------


  Excited state  6 (A)                                             [converged]
  ----------------------------------------------------------------------------
  Term symbol:  7 (-) A                                     R^2 =  8.30605e-14

  Total energy:                                           -424.6563294034 a.u.
  Excitation energy:                                             305.366952 eV

  Osc. strength:                                                      0.112648
  Trans. dip. moment [a.u.]:           [   0.054274,    0.011287,    0.109472]
  <i|r^2|0> [a.u.]:                    [  -0.123949,    0.111339,   -0.053631]

  V1^2 = 0.9409, V2^2 = 0.0591

  Important amplitudes:
     core i     occ j      vir a      vir b          v   
    ------------------------------------------------------
     5 (A) B              23 (A) B                -0.5226
     5 (A) A              23 (A) A                 0.5141
    ------------------------------------------------------
  ----------------------------------------------------------------------------


  Excited state  7 (A)                                             [converged]
  ----------------------------------------------------------------------------
  Term symbol:  8 (-) A                                     R^2 =  2.08127e-13

  Total energy:                                           -424.6537385154 a.u.
  Excitation energy:                                             305.437453 eV

  Osc. strength:                                                      0.068398
  Trans. dip. moment [a.u.]:           [   0.078130,   -0.042512,   -0.035053]
  <i|r^2|0> [a.u.]:                    [  -0.176673,   -0.429161,    0.021241]

  V1^2 = 0.9053, V2^2 = 0.0947

  Important amplitudes:
     core i     occ j      vir a      vir b          v   
    ------------------------------------------------------
     5 (A) B              22 (A) B                 0.5855
     5 (A) A              25 (A) A                 0.4840
    ------------------------------------------------------
  ----------------------------------------------------------------------------


  Excited state  8 (A)                                             [converged]
  ----------------------------------------------------------------------------
  Term symbol:  9 (-) A                                     R^2 =  1.96852e-13

  Total energy:                                           -424.6445894214 a.u.
  Excitation energy:                                             305.686413 eV

  Osc. strength:                                                      0.044232
  Trans. dip. moment [a.u.]:           [  -0.063358,    0.034080,    0.027026]
  <i|r^2|0> [a.u.]:                    [   0.143121,    0.344279,   -0.016522]

  V1^2 = 0.8826, V2^2 = 0.1174

  Important amplitudes:
     core i     occ j      vir a      vir b          v   
    ------------------------------------------------------
     5 (A) B              22 (A) B                 0.7049
     5 (A) B              25 (A) B                -0.4148
    ------------------------------------------------------
  ----------------------------------------------------------------------------


  Excited state  9 (A)                                             [converged]
  ----------------------------------------------------------------------------
  Term symbol:  10 (-) A                                    R^2 =  1.78950e-13

  Total energy:                                           -424.6229021179 a.u.
  Excitation energy:                                             306.276554 eV

  Osc. strength:                                                      0.031064
  Trans. dip. moment [a.u.]:           [   0.025432,    0.057580,   -0.013325]
  <i|r^2|0> [a.u.]:                    [  -0.038584,    0.610064,    0.024620]

  V1^2 = 0.9155, V2^2 = 0.0845

  Important amplitudes:
     core i     occ j      vir a      vir b          v   
    ------------------------------------------------------
     5 (A) B              24 (A) B                 0.5473
     5 (A) A              24 (A) A                 0.5373
    ------------------------------------------------------
  ----------------------------------------------------------------------------


  Excited state 10 (A)                                             [converged]
  ----------------------------------------------------------------------------
  Term symbol:  11 (-) A                                    R^2 =  1.77136e-13

  Total energy:                                           -424.3327870838 a.u.
  Excitation energy:                                             314.170986 eV

  Osc. strength:                                                      0.000042
  Trans. dip. moment [a.u.]:           [   0.000787,    0.002062,   -0.000763]
  <i|r^2|0> [a.u.]:                    [  -0.002326,    0.020403,   -0.000196]

  V1^2 = 0.9135, V2^2 = 0.0865

  Important amplitudes:
     core i     occ j      vir a      vir b          v   
    ------------------------------------------------------
     5 (A) A              26 (A) A                -0.6159
     5 (A) B              26 (A) B                 0.5647
    ------------------------------------------------------
  ----------------------------------------------------------------------------


  Excited state 11 (A)                                             [converged]
  ----------------------------------------------------------------------------
  Term symbol:  12 (-) A                                    R^2 =  3.01893e-13

  Total energy:                                           -424.3093102101 a.u.
  Excitation energy:                                             314.809824 eV

  Osc. strength:                                                      0.000124
  Trans. dip. moment [a.u.]:           [   0.003320,   -0.001769,   -0.001395]
  <i|r^2|0> [a.u.]:                    [  -0.007323,   -0.017992,    0.000809]

  V1^2 = 0.8951, V2^2 = 0.1049

  Important amplitudes:
     core i     occ j      vir a      vir b          v   
    ------------------------------------------------------
     5 (A) A              28 (A) A                -0.5838
     5 (A) B              28 (A) B                 0.5187
    ------------------------------------------------------
  ----------------------------------------------------------------------------


  Excited state 12 (A)                                             [converged]
  ----------------------------------------------------------------------------
  Term symbol:  13 (-) A                                    R^2 =  5.47630e-13

  Total energy:                                           -424.3091215341 a.u.
  Excitation energy:                                             314.814958 eV

  Osc. strength:                                                      0.000002
  Trans. dip. moment [a.u.]:           [  -0.000119,   -0.000485,    0.000121]
  <i|r^2|0> [a.u.]:                    [   0.000380,   -0.004821,    0.000057]

  V1^2 = 0.8954, V2^2 = 0.1046

  Important amplitudes:
     core i     occ j      vir a      vir b          v   
    ------------------------------------------------------
     5 (A) A              27 (A) A                -0.5505
     5 (A) B              27 (A) B                 0.5500
    ------------------------------------------------------
  ----------------------------------------------------------------------------


  Excited state 13 (A)                                             [converged]
  ----------------------------------------------------------------------------
  Term symbol:  14 (-) A                                    R^2 =  1.98460e-13

  Total energy:                                           -424.2951682986 a.u.
  Excitation energy:                                             315.194645 eV

  Osc. strength:                                                      0.000347
  Trans. dip. moment [a.u.]:           [  -0.003125,   -0.005922,    0.000306]
  <i|r^2|0> [a.u.]:                    [   0.008243,   -0.058909,    0.001207]

  V1^2 = 0.8866, V2^2 = 0.1134

  Important amplitudes:
     core i     occ j      vir a      vir b          v   
    ------------------------------------------------------
     5 (A) B              29 (A) B                -0.5310
     5 (A) A              29 (A) A                 0.5300
    ------------------------------------------------------
  ----------------------------------------------------------------------------


  Excited state 14 (A)                                             [converged]
  ----------------------------------------------------------------------------
  Term symbol:  15 (-) A                                    R^2 =  3.01155e-13

  Total energy:                                           -424.2915562411 a.u.
  Excitation energy:                                             315.292934 eV

  Osc. strength:                                                      0.035148
  Trans. dip. moment [a.u.]:           [  -0.040750,   -0.041966,   -0.033593]
  <i|r^2|0> [a.u.]:                    [   0.097574,   -0.419134,    0.025462]

  V1^2 = 0.9016, V2^2 = 0.0984

  Important amplitudes:
     core i     occ j      vir a      vir b          v   
    ------------------------------------------------------
     5 (A) A              27 (A) A                 0.4616
     5 (A) B              26 (A) B                 0.4547
    ------------------------------------------------------
  ----------------------------------------------------------------------------


  Excited state 15 (A)                                             [converged]
  ----------------------------------------------------------------------------
  Term symbol:  16 (-) A                                    R^2 =  5.53885e-13

  Total energy:                                           -424.2901382611 a.u.
  Excitation energy:                                             315.331519 eV

  Osc. strength:                                                      0.035711
  Trans. dip. moment [a.u.]:           [  -0.054146,    0.030438,    0.027645]
  <i|r^2|0> [a.u.]:                    [   0.119356,    0.309653,   -0.015654]

  V1^2 = 0.8981, V2^2 = 0.1019

  Important amplitudes:
     core i     occ j      vir a      vir b          v   
    ------------------------------------------------------
     5 (A) B              28 (A) B                 0.6193
     5 (A) A              28 (A) A                 0.5550
    ------------------------------------------------------
  ----------------------------------------------------------------------------


  Excited state 16 (A)                                             [converged]
  ----------------------------------------------------------------------------
  Term symbol:  17 (-) A                                    R^2 =  1.11885e-12

  Total energy:                                           -424.2879848162 a.u.
  Excitation energy:                                             315.390118 eV

  Osc. strength:                                                      0.034224
  Trans. dip. moment [a.u.]:           [  -0.002754,    0.041980,   -0.051569]
  <i|r^2|0> [a.u.]:                    [  -0.004314,    0.417014,    0.016583]

  V1^2 = 0.9036, V2^2 = 0.0964

  Important amplitudes:
     core i     occ j      vir a      vir b          v   
    ------------------------------------------------------
     5 (A) B              26 (A) B                -0.5347
     5 (A) A              26 (A) A                -0.4713
    ------------------------------------------------------
  ----------------------------------------------------------------------------


  Excited state 17 (A)                                             [converged]
  ----------------------------------------------------------------------------
  Term symbol:  18 (-) A                                    R^2 =  8.68752e-13

  Total energy:                                           -424.2689843388 a.u.
  Excitation energy:                                             315.907147 eV

  Osc. strength:                                                      0.004166
  Trans. dip. moment [a.u.]:           [  -0.007871,   -0.020553,    0.007342]
  <i|r^2|0> [a.u.]:                    [  -0.002815,   -0.228522,   -0.024114]

  V1^2 = 0.8958, V2^2 = 0.1042

  Important amplitudes:
     core i     occ j      vir a      vir b          v   
    ------------------------------------------------------
     5 (A) A              29 (A) A                 0.6369
     5 (A) B              29 (A) B                 0.6352
    ------------------------------------------------------
  ----------------------------------------------------------------------------


  Excited state 18 (A)                                             [converged]
  ----------------------------------------------------------------------------
  Term symbol:  19 (-) A                                    R^2 =  5.13969e-07

  Total energy:                                           -423.6612683911 a.u.
  Excitation energy:                                             332.443939 eV

  Osc. strength:                                                      0.000005
  Trans. dip. moment [a.u.]:           [  -0.000657,    0.000365,    0.000263]
  <i|r^2|0> [a.u.]:                    [   0.001380,    0.003378,    0.000247]

  V1^2 = 0.8680, V2^2 = 0.1320

  Important amplitudes:
     core i     occ j      vir a      vir b          v   
    ------------------------------------------------------
     5 (A) A              34 (A) A                -0.4796
     5 (A) A              31 (A) A                 0.4732
    ------------------------------------------------------
  ----------------------------------------------------------------------------


  Excited state 19 (A)                                             [converged]
  ----------------------------------------------------------------------------
  Term symbol:  20 (-) A                                    R^2 =  1.78216e-08

  Total energy:                                           -423.6599995448 a.u.
  Excitation energy:                                             332.478466 eV

  Osc. strength:                                                      0.000001
  Trans. dip. moment [a.u.]:           [  -0.000027,    0.000143,   -0.000219]
  <i|r^2|0> [a.u.]:                    [   0.000063,    0.001412,    0.000135]

  V1^2 = 0.8656, V2^2 = 0.1344

  Important amplitudes:
     core i     occ j      vir a      vir b          v   
    ------------------------------------------------------
     5 (A) A              35 (A) A                 0.4811
     5 (A) B              34 (A) B                -0.4687
    ------------------------------------------------------
  ----------------------------------------------------------------------------


  Excited state 20 (A)                                         [not converged]
  ----------------------------------------------------------------------------
  Term symbol:  21 (-) A                                    R^2 =  5.83669e-06

  Total energy:                                           -423.6587146023 a.u.
  Excitation energy:                                             332.513431 eV


  V1^2 = 0.8670, V2^2 = 0.1330

  Important amplitudes:
     core i     occ j      vir a      vir b          v   
    ------------------------------------------------------
     5 (A) B              35 (A) B                 0.5031
     5 (A) B              31 (A) B                 0.4564
    ------------------------------------------------------
  ----------------------------------------------------------------------------


--------------------------------------------------------------------------------
  Time of ADC calculation:  CPU 1468.81 s  wall 1509.40 s
================================================================================
 
 --------------------------------------------------------------
 
                    Orbital Energies (a.u.)
 --------------------------------------------------------------
 
 Alpha MOs
 -- Occupied --
-26.739 -26.739 -26.735 -26.620 -11.969  -2.134  -2.028  -2.024
 -1.869  -1.313  -1.209  -1.208  -1.156  -1.054  -1.053  -1.036
 -1.023  -1.021  -1.008  -0.930  -0.927
 -- Virtual --
 -0.309   0.110   0.111   0.113   0.343   0.374   0.377   0.400
  0.928   1.017   1.019   1.042   1.053   1.057   1.165   1.207
  1.227   1.288   1.290   1.316   1.324   1.326   1.419   1.493
  1.623   1.623   1.734   1.745   1.784   1.801   1.803   1.809
  1.844   1.853   1.907   1.921   1.946   1.993   1.999   2.070
  2.076   2.449   2.458   2.557   2.807   2.808   3.099   3.102
  3.125   3.591   4.233   4.386   4.393   4.751
 
 Beta MOs
 -- Occupied --
-26.739 -26.739 -26.735 -26.572 -11.969  -2.134  -2.028  -2.024
 -1.675  -1.314  -1.209  -1.208  -1.157  -1.054  -1.053  -1.023
 -1.021  -1.008  -0.875  -0.875
 -- Virtual --
 -0.309  -0.117   0.110   0.111   0.116   0.348   0.374   0.379
  0.400   0.954   1.017   1.019   1.045   1.057   1.058   1.220
  1.251   1.288   1.290   1.316   1.321   1.327   1.379   1.422
  1.506   1.623   1.624   1.746   1.748   1.784   1.805   1.810
  1.815   1.925   1.942   1.949   1.959   1.969   1.997   1.999
  2.070   2.080   2.449   2.458   2.558   2.807   2.808   3.099
  3.102   3.126   3.631   4.233   4.386   4.393   4.752
 --------------------------------------------------------------
 
          Ground-State Mulliken Net Atomic Charges

     Atom                 Charge (a.u.)    Spin (a.u.)
  --------------------------------------------------------
      1 C                     1.302105      -0.003995
      2 F                    -0.108398      -0.000354
      3 F                    -0.108517      -0.000352
      4 F                     0.029430       1.005020
      5 F                    -0.114619      -0.000320
  --------------------------------------------------------
  Sum of atomic charges =     1.000000
  Sum of spin   charges =     1.000000

 -----------------------------------------------------------------
                    Cartesian Multipole Moments
 -----------------------------------------------------------------
    Charge (ESU x 10^10)
                 4.8032
    Dipole Moment (Debye)
         X      -3.0639      Y      12.1471      Z      -0.3726
       Tot      12.5331
    Quadrupole Moments (Debye-Ang)
        XX     -18.5811     XY      -7.3609     YY      11.3765
        XZ      -0.2783     YZ      -1.5147     ZZ     -20.9976
    Octopole Moments (Debye-Ang^2)
       XXX      41.9613    XXY     -44.5088    XYY      -4.1978
       YYY     -60.9768    XXZ       1.4366    XYZ       0.2439
       YYZ      -4.1327    XZZ      13.6808    YZZ     -48.8661
       ZZZ      -0.6545
    Hexadecapole Moments (Debye-Ang^3)
      XXXX    -138.7112   XXXY      83.1630   XXYY    -159.0778
      XYYY      33.0698   YYYY    -636.4584   XXXZ       3.8769
      XXYZ       8.4767   XYYZ       3.4845   YYYZ      13.1830
      XXZZ     -36.6462   XYZZ      25.5909   YYZZ    -157.5812
      XZZZ       8.5990   YZZZ      20.5598   ZZZZ     -86.3702
 -----------------------------------------------------------------
Archival summary:
1\1\tp-linux1\SP\HF\6-31G*\41(1+,2)\thomas\WedMar2216:32:582017WedMar2216:32:582017\0\\#,HF,6-31G*,\\1,2\C\F,1,1.26636\F,1,1.26651,2,113.615\F,1,1.27319,2,113.065,3,-130.566,0\F,1,2.80373,2,103.678,3,112.112,0\\HF=-435.120828\\@

 Total job time:  1530.96s(wall), 1484.59s(cpu) 
 Wed Mar 22 16:32:58 2017

        *************************************************************
        *                                                           *
        *  Thank you very much for using Q-Chem.  Have a nice day.  *
        *                                                           *
        *************************************************************


0 sent ACK to 0 
now end server 0 ... 
cleanup process ... done
