
Running Job 1 of 1 ddtraj1t48.inp
qchem ddtraj1t48.inp_19018.0 /scratch/qchem/qchem19018/ 1
/mnt/software/qchem/bin/mpi/mpirun_qchem -machinefile /mnt/software/qchem/bin/mpi/machines -np 1 /mnt/software/qchem/exe/qcprog.exe ddtraj1t48.inp_19018.0 /scratch/qchem/qchem19018/

Process 0 of 1 is on tp-linux1 - thread support 0
initial socket setup ...start
initial socket setup ...done 
now start server 0 ... 

cmd = ssh tp-linux1 /mnt/software/qchem/bin/get_hostid 264402615 > /scratch/qchem/qchem19018/lic.dat
                  Welcome to Q-Chem
     A Quantum Leap Into The Future Of Chemistry


 Q-Chem 4.3, Q-Chem, Inc., Pleasanton, CA (2015)

 Y. Shao,  Z. Gan,  E. Epifanovsky,  A. T. B. Gilbert,  M. Wormit,  
 J. Kussmann,  A. W. Lange,  A. Behn,  J. Deng,  X. Feng,  D. Ghosh,  
 M. Goldey,  P. R. Horn,  L. D. Jacobson,  I. Kaliman,  R. Z. Khaliullin,  
 T. Kus,  A. Landau,  J. Liu,  E. I. Proynov,  Y. M. Rhee,  R. M. Richard,  
 M. A. Rohrdanz,  R. P. Steele,  E. J. Sundstrom,  H. L. Woodcock III,  
 P. M. Zimmerman,  D. Zuev,  B. Albrecht,  E. Alguire,  B. Austin,  
 S. A. Baeppler,  G. J. O. Beran,  Y. A. Bernard,  E. Berquist,  
 K. Brandhorst,  K. B. Bravaya,  S. T. Brown,  D. Casanova,  C.-M. Chang,  
 Y. Chen,  S. H. Chien,  K. D. Closser,  D. L. Crittenden,  M. Diedenhofen,  
 R. A. DiStasio Jr.,  H. Do,  A. D. Dutoi,  R. G. Edgar,  P.-T. Fang,  
 S. Fatehi,  Q. Feng,  L. Fusti-Molnar,  A. Ghysels,  
 A. Golubeva-Zadorozhnaya,  J. Gomes,  A. Gunina,  M. W. D. Hanson-Heine,  
 P. H. P. Harbach,  A. W. Hauser,  E. G. Hohenstein,  Z. C. Holden,  K. Hui,  
 T.-C. Jagau,  H. Ji,  B. Kaduk,  K. Khistyaev,  Jaehoon Kim,  Jihan Kim,  
 R. A. King,  P. Klunzinger,  D. Kosenkov,  T. Kowalczyk,  C. M. Krauter,  
 K. U. Lao,  A. Laurent,  K. V. Lawler,  S. Lehtola,  S. V. Levchenko,  
 C. Y. Lin,  Y.-S. Lin,  F. Liu,  E. Livshits,  R. C. Lochan,  A. Luenser,  
 P. Manohar,  S. F. Manzer,  S.-P. Mao,  N. Mardirossian,  A. V. Marenich,  
 L. A. Martinez-Martinez,  S. A. Maurer,  N. J. Mayhall,  K. Nanda,  
 C. M. Oana,  R. Olivares-Amaya,  D. P. O'Neill,  J. A. Parkhill,  
 T. M. Perrine,  R. Peverati,  P. A. Pieniazek,  F. Plasser,  A. Prociuk,  
 D. R. Rehn,  E. Rosta,  N. J. Russ,  N. Sergueev,  S. M. Sharada,  
 S. Sharma,  D. W. Small,  A. Sodt,  T. Stauch,  T. Stein,  D. Stuck,  
 Y.-C. Su,  A. J. W. Thom,  T. Tsuchimochi,  L. Vogt,  O. Vydrov,  T. Wang,  
 M. A. Watson,  J. Wenzel,  A. White,  C. F. Williams,  V. Vanovschi,  
 S. Yeganeh,  S. R. Yost,  Z.-Q. You,  I. Y. Zhang,  X. Zhang,  Y. Zhao,  
 B. R. Brooks,  G. K. L. Chan,  D. M. Chipman,  C. J. Cramer,  
 W. A. Goddard III,  M. S. Gordon,  W. J. Hehre,  A. Klamt,  
 H. F. Schaefer III,  M. W. Schmidt,  C. D. Sherrill,  D. G. Truhlar,  
 A. Warshel,  X. Xu,  A. Aspuru-Guzik,  R. Baer,  A. T. Bell,  N. A. Besley,  
 J.-D. Chai,  A. Dreuw,  B. D. Dunietz,  T. R. Furlani,  S. R. Gwaltney,  
 C.-P. Hsu,  Y. Jung,  J. Kong,  D. S. Lambrecht,  W. Liang,  C. Ochsenfeld,  
 V. A. Rassolov,  L. V. Slipchenko,  J. E. Subotnik,  T. Van Voorhis,  
 J. M. Herbert,  A. I. Krylov,  P. M. W. Gill,  M. Head-Gordon

 Contributors to earlier versions of Q-Chem not listed above: 
 R. D. Adamson,  J. Baker,  E. F. C. Byrd,  A. K. Chakraborty,  C.-L. Cheng,  
 H. Dachsel,  R. J. Doerksen,  G. Hawkins,  A. Heyden,  S. Hirata,  
 G. Kedziora,  F. J. Keil,  C. Kelley,  P. P. Korambath,  W. Kurlancheek,  
 A. M. Lee,  M. S. Lee,  D. Liotard,  I. Lotan,  P. E. Maslen,  N. Nair,  
 D. Neuhauser,  R. Olson,  B. Peters,  J. Ritchie,  N. E. Schultz,  
 N. Shenvi,  A. C. Simmonett,  K. S. Thanthiriwatte,  Q. Wu,  W. Zhang

 Please cite Q-Chem as follows:
 Y. Shao et al., Mol. Phys. 113, 184-215 (2015)
 DOI: 10.1080/00268976.2014.952696

 Q-Chem 4.3.0 for Intel X86 Linux

 Parts of Q-Chem use Armadillo 5.200.1 (Boston Tea Smuggler).
 http://arma.sourceforge.net/

 Q-Chem begins on Wed Mar 22 19:43:37 2017  

Host: 
0

     Scratch files written to /scratch/qchem/qchem19018//
 Nov1815 1189b_ 19540  19532 5443   
 Parallel job on  1  processors
Processing $rem in /mnt/software/qchem/config/preferences.
 MEM_TOTAL  2000 

Checking the input file for inconsistencies... 	...done.

--------------------------------------------------------------
User input:
--------------------------------------------------------------
$comment
XAS calculation for valence excited states for CF4+ using cvs-adc(2) + 6-31G* basis set
job 1 - determination of HF orbitals
$end

$molecule
1 2
6  -0.463224  3.001417  -0.258557
9  0.67312  2.61251  -0.112688
9  -1.03447  3.543629  0.65954
9  -1.575484  -0.049566  0.937179
9  -1.009655  2.880454  -1.320719
$end

$comment
cvs-adc(2) calculation
$end

$rem
mem_total 3000
mem_static 1500
sym_ignore true
method cvs-adc(2)
basis 6-31G*
ee_singlets 20
cc_rest_occ 5                  !only excitations from the lowest N orbitals
unrestricted  true
max_scf_cycles 200
SCF_ALGORITHM = DIIS_GDM
SCF_CONVERGENCE = 7
THRESH = 10
$end
--------------------------------------------------------------
 ----------------------------------------------------------------
             Standard Nuclear Orientation (Angstroms)
    I     Atom           X                Y                Z
 ----------------------------------------------------------------
    1      C      -0.4632240000     3.0014170000    -0.2585570000
    2      F       0.6731200000     2.6125100000    -0.1126880000
    3      F      -1.0344700000     3.5436290000     0.6595400000
    4      F      -1.5754840000    -0.0495660000     0.9371790000
    5      F      -1.0096550000     2.8804540000    -1.3207190000
 ----------------------------------------------------------------
 Nuclear Repulsion Energy =   175.8219234612 hartrees
 There are       21 alpha and       20 beta electrons
 Requested basis set is 6-31G(d)
 There are 20 shells and 75 basis functions

 Total QAlloc Memory Limit   3000 MB
 Mega-Array Size      1467 MB
 MEM_STATIC part      1500 MB

                       Distance Matrix (Angstroms)
             C (  1)   F (  2)   F (  3)   F (  4)
   F (  2)  1.209878
   F (  3)  1.209635  2.092650
   F (  4)  3.460550  3.639380  3.644287
   F (  5)  1.200586  2.088747  2.088502  3.742096
 
 tim1(1): 
  0.000000000000000E+000
 tim1(2): 
  0.000000000000000E+000
 A cutoff of  1.0D-10 yielded    179 shell pairs
 There are      2710 function pairs
 
 -------------------------------------------------------
 OpenMP Integral Computing Module                       
 Release: version 1.0, May 2013, Q-Chem Inc. Pittsburgh 
 -------------------------------------------------------
 Integral Job Info:
 Integral job number is                      11
 Integral operator is                         1
 short-range coefficients                     0
 long-range coefficients              100000000
 Omega coefficients                           0
 if combine SR and LR in K                    0
 Integral screening is                        0
 Integral computing path is                   2
 max size of driver memory is            800000
 size of driver memory is                593474
 size of scratch memory is              2260544
 max col of scratch BK array               1296
 max len of scratch array in speh3          155
 max len of scratch index in speh4           18
 max int batch size is                      520
 min int batch size is                       52
 fixed nKL is                                52
 max L of basis functions is                  2
 order of int derivative is                   0
 number of shells is                         20
 number of basis is                          75
 number of cartesian basis is                75
 number of contracted shell pairs           179
 number of primitive shell pairs            925
 maxK2 (contraction) of shell pair           36
 max number of K2 of shell pair               1
 max number of CS2 of shell pair             31
 max number of PS2 of shell pair            186
 mem total for path MDJ                   17476
 -------------------------------------------------------
 Smallest overlap matrix eigenvalue = 3.83E-03

 Scale SEOQF with 1.000000e-01/1.000000e-01/1.000000e+00

 Standard Electronic Orientation quadrupole field applied
 Nucleus-field energy     =    -0.0000000067 hartrees
 Guess from superposition of atomic densities
 Warning:  Energy on first SCF cycle will be non-variational
 An unrestricted Hartree-Fock SCF calculation will be
 performed using Pulay DIIS + Geometric Direct Minimization
 SCF converges when RMS gradient is below 1.0E-07
 ---------------------------------------
  Cycle       Energy         DIIS Error
 ---------------------------------------
    1    -436.5070020971      9.48E-02
    2    -434.9990791370      1.76E-02
    3    -435.1470826510      7.86E-03 Done DIIS. Switching to GDM
    4    -435.1751993560      1.04E-02 Normal BFGS step
    5    -435.1760877580      8.48E-03 Normal BFGS step
    6    -435.1763855549      1.61E-03 Normal BFGS step
    7    -435.1764039485      1.25E-03 Normal BFGS step
    8    -435.1764078318      1.23E-03 Normal BFGS step
    9    -435.1764112900      1.21E-03 Normal BFGS step
   10    -435.1764192415      1.17E-03 Normal BFGS step
   11    -435.1764358251      1.44E-03 Normal BFGS step
   12    -435.1764694436      2.15E-03 Normal BFGS step
   13    -435.1765157955      2.24E-03 Normal BFGS step
   14    -435.1765500192      1.26E-03 Normal BFGS step
   15    -435.1765609357      2.73E-04 Normal BFGS step
   16    -435.1765616690      1.45E-04 Normal BFGS step
   17    -435.1765617531      4.72E-05 Normal BFGS step
   18    -435.1765617637      6.56E-06 Normal BFGS step
   19    -435.1765617639      2.23E-06 Normal BFGS step
   20    -435.1765617639      2.23E-06 Normal BFGS step
   21    -435.1765617640      2.23E-06 Normal BFGS step
   22    -435.1765617640      2.23E-06 Normal BFGS step
   23    -435.1765617640      3.09E-06 Normal BFGS step
   24    -435.1765617642      5.32E-06 Normal BFGS step
   25    -435.1765617645      8.50E-06 Normal BFGS step
   26    -435.1765617653      1.30E-05 Normal BFGS step
   27    -435.1765617674      2.16E-05 Normal BFGS step
   28    -435.1765617727      3.66E-05 Normal BFGS step
   29    -435.1765617863      6.15E-05 Normal BFGS step
   30    -435.1765618151      1.01E-04 Normal BFGS step
   31    -435.1765618526      1.11E-04 Normal BFGS step
   32    -435.1765619463      2.17E-04 Normal BFGS step
   33    -435.1765620602      8.08E-05 Normal BFGS step
   34    -435.1765621091      1.18E-04 Normal BFGS step
   35    -435.1765621502      1.88E-04 Normal BFGS step
   36    -435.1765622178      1.32E-04 Normal BFGS step
   37    -435.1765622912      1.36E-04 Normal BFGS step
   38    -435.1765624402      8.94E-05 Normal BFGS step
   39    -435.1765623189      3.68E-04 Line search: overstep
   40    -435.1765624856      1.36E-04 Normal BFGS step
   41    -435.1765624370      4.02E-04 Line search: overstep
   42    -435.1765626192      1.48E-04 Normal BFGS step
   43    -435.1765627534      5.82E-05 Normal BFGS step
   44    -435.1765621551      6.01E-04 Line search: overstep
   45    -435.1765627920      6.35E-05 Normal BFGS step
   46    -435.1765625670      4.44E-04 Line search: overstep
   47    -435.1765628364      1.10E-04 Normal BFGS step
   48    -435.1765628773      2.60E-04 Normal BFGS step
   49    -435.1765629539      9.87E-05 Normal BFGS step
   50    -435.1765630200      6.06E-05 Normal BFGS step
   51    -435.1765629363      4.20E-04 Line search: overstep
   52    -435.1765630998      1.11E-04 Normal BFGS step
   53    -435.1765631066      3.03E-04 Normal BFGS step
   54    -435.1765632164      6.55E-05 Normal BFGS step
   55    -435.1765632683      3.46E-05 Normal BFGS step
   56    -435.1765616535      1.04E-03 Line search: overstep
   57    -435.1765633021      5.39E-05 Normal BFGS step
   58    -435.1765630317      5.23E-04 Line search: overstep
   59    -435.1765633487      9.79E-05 Normal BFGS step
   60    -435.1765633843      2.46E-04 Normal BFGS step
   61    -435.1765634569      9.19E-05 Normal BFGS step
   62    -435.1765635169      7.28E-05 Normal BFGS step
   63    -435.1765626022      9.26E-04 Line search: overstep
   64    -435.1765635690      6.39E-05 Dog-leg BFGS step
   65    -435.1765631192      7.20E-04 Line search: overstep
   66    -435.1765636235      9.70E-05 Dog-leg BFGS step
   67    -435.1765637155      1.29E-04 Dog-leg BFGS step
   68    -435.1765638171      1.10E-04 Normal BFGS step
   69    -435.1765639321      9.73E-05 Normal BFGS step
   70    -435.1765636261      6.51E-04 Line search: overstep
   71    -435.1765639774      1.29E-04 Dog-leg BFGS step
   72    -435.1765640852      3.91E-04 Normal BFGS step
   73    -435.1765641186      2.83E-04 Normal BFGS step
   74    -435.1765643672      1.98E-05 Normal BFGS step
   75    -435.1765643704      2.61E-04 Normal BFGS step
   76    -435.1765644431      5.71E-05 Normal BFGS step
   77    -435.1765644855      4.31E-05 Normal BFGS step
   78    -435.1765642661      5.96E-04 Line search: overstep
   79    -435.1765645480      8.05E-05 Normal BFGS step
   80    -435.1765645490      2.81E-04 Normal BFGS step
   81    -435.1765646438      1.34E-05 Normal BFGS step
   82    -435.1765646757      2.19E-05 Normal BFGS step
   83    -435.1765645089      4.55E-04 Line search: overstep
   84    -435.1765647013      5.06E-05 Normal BFGS step
   85    -435.1765647135      1.42E-04 Normal BFGS step
   86    -435.1765647376      2.78E-05 Normal BFGS step
   87    -435.1765647466      1.98E-05 Normal BFGS step
   88    -435.1765647553      4.93E-05 Normal BFGS step
   89    -435.1765647595      2.64E-05 Normal BFGS step
   90    -435.1765647628      2.83E-05 Normal BFGS step
   91    -435.1765647687      3.15E-05 Normal BFGS step
   92    -435.1765647791      3.52E-05 Normal BFGS step
   93    -435.1765648032      4.76E-05 Normal BFGS step
   94    -435.1765648724      5.68E-05 Normal BFGS step
   95    -435.1765649033      1.91E-04 Normal BFGS step
   96    -435.1765478053      4.40E-03 Line search: overstep
   97    -435.1765649743      7.23E-05 Line search: understep
   98    -435.1765530986      3.69E-03 Line search: overstep
   99    -435.1765650124      1.49E-04 Dog-leg BFGS step
  100    -435.1765649916      3.30E-04 Line search: overstep
  101    -435.1765650331      1.01E-04 Normal BFGS step
  102    -435.1765650413      1.19E-04 Normal BFGS step
  103    -435.1765650660      3.30E-05 Normal BFGS step
  104    -435.1765650707      3.52E-05 Normal BFGS step
  105    -435.1765650760      2.02E-05 Normal BFGS step
  106    -435.1765650770      1.37E-05 Normal BFGS step
  107    -435.1765650775      9.22E-06 Normal BFGS step
  108    -435.1765650781      8.94E-06 Normal BFGS step
  109    -435.1765650792      1.44E-05 Normal BFGS step
  110    -435.1765650813      1.77E-05 Normal BFGS step
  111    -435.1765650852      1.58E-05 Normal BFGS step
  112    -435.1765650904      2.00E-05 Normal BFGS step
  113    -435.1765650952      1.86E-05 Normal BFGS step
  114    -435.1765650865      8.00E-05 Line search: overstep
  115    -435.1765650970      1.21E-05 Normal BFGS step
  116    -435.1765650988      2.31E-05 Normal BFGS step
  117    -435.1765650997      4.59E-06 Normal BFGS step
  118    -435.1765651001      3.83E-06 Normal BFGS step
  119    -435.1765651007      9.09E-06 Normal BFGS step
  120    -435.1765651009      4.29E-06 Normal BFGS step
  121    -435.1765651011      1.49E-06 Normal BFGS step
  122    -435.1765651012      6.33E-07 Normal BFGS step
  123    -435.1765651012      2.19E-07 Normal BFGS step
  124    -435.1765651012      9.85E-08 Convergence criterion met
 ---------------------------------------
 <S^2> = 0.7527
 SCF time:  CPU 19.66 s  wall 47.61 s
 SCF   energy in the final basis set = -435.1765651012
 Total energy in the final basis set = -435.1765651012
================================================================================
|                                                                              |
|                                 A D C  M A N                                 |
|                                                                              |
 ------------------------------------------------------------------------------ 
|                                                                              |
| Components:                                                                  |
|                                                                              |
| - libvmm - 1.2-release                                                       |
|   Authors:                                                                   |
|   Evgeny Epifanovsky, Ilya Kaliman                                           |
|                                                                              |
| - libtensor - 2.4-trunk                                                      |
|   Authors:                                                                   |
|   Evgeny Epifanovsky, Michael Wormit, Dmitry Zuev, Sam Manzer                |
|                                                                              |
| - libwfa - 1.1-beta                                                          |
|   Authors:                                                                   |
|   Felix Plasser, Stefanie Baeppler, Benjamin Thomitzni, Michael Wormit       |
|                                                                              |
| - libadc - 1.0-beta                                                          |
|   Authors:                                                                   |
|   Michael Wormit, Philipp H. P. Harbach, Caroline Krauter, Dirk Rehn,        |
|   Matthias Schneider, Jan Wenzel                                             |
|                                                                              |
| - adcman - 2.4-beta                                                          |
|   Authors:                                                                   |
|   Michael Wormit, Philipp H. P. Harbach, Caroline Krauter, Dirk Rehn,        |
|   Jan Wenzel, Andreas Dreuw                                                  |
|                                                                              |
| Authors of earlier versions of ADCMAN:                                       |
| Andreas Dreuw, Jan Hendrik Starcke, Dirk Rehn, Michael Wormit                |
|                                                                              |
================================================================================

 
 Alpha MOs, Unrestricted
 -- Occupied --                  
-26.753 -26.749 -26.749 -26.560 -11.950  -2.184  -2.078  -2.072
  1 A     2 A     3 A     4 A     5 A     6 A     7 A     8 A                  
 -1.812  -1.329  -1.252  -1.251  -1.199  -1.078  -1.078  -1.053
  9 A    10 A    11 A    12 A    13 A    14 A    15 A    16 A                  
 -1.050  -1.026  -0.980  -0.874  -0.872
 17 A    18 A    19 A    20 A    21 A                                          
 -- Virtual --                   
 -0.181  -0.005   0.213   0.215   0.330   0.416   0.422   0.431
 22 A    23 A    24 A    25 A    26 A    27 A    28 A    29 A                  
  0.921   1.000   1.008   1.010   1.134   1.135   1.210   1.251
 30 A    31 A    32 A    33 A    34 A    35 A    36 A    37 A                  
  1.259   1.260   1.279   1.287   1.288   1.305   1.363   1.424
 38 A    39 A    40 A    41 A    42 A    43 A    44 A    45 A                  
  1.633   1.634   1.747   1.749   1.780   1.856   1.887   1.896
 46 A    47 A    48 A    49 A    50 A    51 A    52 A    53 A                  
  1.904   1.908   1.925   1.957   1.959   1.963   1.968   2.062
 54 A    55 A    56 A    57 A    58 A    59 A    60 A    61 A                  
  2.174   2.223   2.699   2.706   3.025   3.037   3.230   3.249
 62 A    63 A    64 A    65 A    66 A    67 A    68 A    69 A                  
  3.252   3.566   4.177   4.678   4.929   4.956
 70 A    71 A    72 A    73 A    74 A    75 A                                  
 
 Beta MOs, Unrestricted
 -- Occupied --                  
-26.753 -26.749 -26.749 -26.512 -11.950  -2.184  -2.078  -2.072
  1 A     2 A     3 A     4 A     5 A     6 A     7 A     8 A                  
 -1.620  -1.329  -1.252  -1.251  -1.199  -1.078  -1.078  -1.053
  9 A    10 A    11 A    12 A    13 A    14 A    15 A    16 A                  
 -1.050  -1.026  -0.822  -0.820
 17 A    18 A    19 A    20 A                                                  
 -- Virtual --                   
 -0.181  -0.062  -0.005   0.213   0.215   0.331   0.417   0.422
 21 A    22 A    23 A    24 A    25 A    26 A    27 A    28 A                  
  0.431   0.952   1.001   1.008   1.010   1.134   1.135   1.258
 29 A    30 A    31 A    32 A    33 A    34 A    35 A    36 A                  
  1.260   1.271   1.287   1.287   1.304   1.305   1.363   1.429
 37 A    38 A    39 A    40 A    41 A    42 A    43 A    44 A                  
  1.433   1.633   1.635   1.747   1.749   1.780   1.866   1.907
 45 A    46 A    47 A    48 A    49 A    50 A    51 A    52 A                  
  1.908   1.958   1.958   1.968   1.973   1.992   1.993   2.006
 53 A    54 A    55 A    56 A    57 A    58 A    59 A    60 A                  
  2.062   2.174   2.223   2.699   2.706   3.025   3.037   3.231
 61 A    62 A    63 A    64 A    65 A    66 A    67 A    68 A                  
  3.249   3.252   3.607   4.177   4.678   4.929   4.956
 69 A    70 A    71 A    72 A    73 A    74 A    75 A                          
 

--------------------------------------------------------------------------------
                                   HF Summary                                   
--------------------------------------------------------------------------------
  Energy:                                                 -435.1765651012 a.u.
  Dip. moment [a.u.]:                  [ -54.459859,  181.267762,    0.325393]
  Total dipole [Debye]:                                             481.082157
  <r^2> [a.u.]:                        [ 180.380438, 1065.991954,  115.311720]
  Total <r^2> [a.u.]:                                              1361.684112
--------------------------------------------------------------------------------

--------------------------------------------------------------------------------
                                 MP(2) Summary                                  
--------------------------------------------------------------------------------
  Energy contribution:                                      -0.7368788852 a.u.
  Total energy:                                           -435.9134439864 a.u.
  Dip. moment [a.u.]:                  [ -54.461505,  181.266187,    0.323761]
  Total dipole [Debye]:                                             481.079521
  <r^2> [a.u.]:                        [ 180.163319, 1066.127105,  115.076475]
  Total <r^2> [a.u.]:                                              1361.366899
--------------------------------------------------------------------------------
  Starting Davidson ... 
--------------------------------------------------------------------------------
   It NVec Conv  Avg. Norm  Max. Norm  Conv. states           Remark
--------------------------------------------------------------------------------
        20    0  2.091e-01  1.150e+00 10.9825 n n n n n n n n Guess.
    1   40    0  6.220e-02  9.664e-01 10.8275 n n n n n n n n 
    2   60    0  9.319e-03  1.263e-01 10.8261 n n n n n n n n 
    3   80    0  2.716e-03  3.498e-02 10.8261 n n n n n n n n 
    4  100    0  1.250e-03  1.623e-02 10.8261 n n n n n n n n 
    5   40    0  7.099e-04  9.675e-03 10.8261 n n n n n n n n Subspace collapsed.
    6   60    0  1.541e-03  2.412e-02 10.8261 n n n n n n n n 
    7   80    1  2.369e-03  3.701e-02 10.8261 y n n n n n n n 
    8  100    3  2.435e-03  4.307e-02 10.8261 y y n n n n y n 
    9   40    7  1.068e-03  1.887e-02 10.8261 y y n n y y y y Subspace collapsed.
   10   60    8  6.784e-04  1.203e-02 10.8261 y y n y y y y y 
   11   80   12  3.232e-04  5.465e-03 10.8261 y y y y y y y y 
   12  100   17  2.796e-04  4.024e-03 10.8261 y y y y y y y y 
   13   40   17  1.785e-04  2.837e-03 10.8261 y y y y y y y y Subspace collapsed.
   14   60   17  2.840e-04  4.180e-03 10.8261 y y y y y y y y 
   15   80   17  3.426e-04  4.851e-03 10.8261 y y y y y y y y 
   16   80   17  3.426e-04  4.851e-03 10.8261 y y y y y y y y 
   17  100   17  4.011e-04  6.319e-03 10.8261 y y y y y y y y 
   18   38   17  2.000e-04  2.936e-03 10.8261 y y y y y y y y Subspace collapsed.
   19   56   17  1.445e-04  2.225e-03 10.8261 y y y y y y y y 
   20   57   17  1.445e-04  2.230e-03 10.8261 y y y y y y y y 
   21   71   17  9.422e-05  1.638e-03 10.8261 y y y y y y y y 
   22   84   17  1.075e-04  1.872e-03 10.8261 y y y y y y y y 
   23   96   17  1.453e-04  2.515e-03 10.8261 y y y y y y y y 
   24  100   17  1.505e-04  2.627e-03 10.8261 y y y y y y y y 
   25   22   17  1.479e-04  2.559e-03 10.8261 y y y y y y y y Subspace collapsed.
   26   24   17  1.475e-04  2.558e-03 10.8261 y y y y y y y y 
   27   26   17  1.474e-04  2.557e-03 10.8261 y y y y y y y y 
   28   26   17  1.474e-04  2.557e-03 10.8261 y y y y y y y y 
   29   46   17  8.432e-05  1.424e-03 10.8261 y y y y y y y y 
   30   54   17  8.919e-05  1.608e-03 10.8261 y y y y y y y y 
   31   62   17  8.410e-05  1.506e-03 10.8261 y y y y y y y y 
   32   63   17  8.436e-05  1.512e-03 10.8261 y y y y y y y y 
   33   63   17  8.436e-05  1.512e-03 10.8261 y y y y y y y y 
   34   64   17  8.437e-05  1.512e-03 10.8261 y y y y y y y y 
   35   64   17  8.437e-05  1.512e-03 10.8261 y y y y y y y y 
   36   64   17  8.437e-05  1.512e-03 10.8261 y y y y y y y y 
   37   84   17  1.033e-04  1.758e-03 10.8261 y y y y y y y y 
   38   85   17  1.025e-04  1.736e-03 10.8261 y y y y y y y y 
   39   85   17  1.025e-04  1.736e-03 10.8261 y y y y y y y y 
   40   85   17  1.025e-04  1.736e-03 10.8261 y y y y y y y y 
   41   85   17  1.025e-04  1.736e-03 10.8261 y y y y y y y y 
   42  100   17  1.019e-04  1.698e-03 10.8261 y y y y y y y y 
   43   20   17  1.019e-04  1.698e-03 10.8261 y y y y y y y y Subspace collapsed.
   44   20   17  1.019e-04  1.698e-03 10.8261 y y y y y y y y 
   45   20   17  1.019e-04  1.698e-03 10.8261 y y y y y y y y 
   46   26   17  1.015e-04  1.694e-03 10.8261 y y y y y y y y 
   47   26   17  1.015e-04  1.694e-03 10.8261 y y y y y y y y 
   48   26   17  1.015e-04  1.694e-03 10.8261 y y y y y y y y 
   49   26   17  1.015e-04  1.694e-03 10.8261 y y y y y y y y 
   50   46   17  6.331e-05  1.126e-03 10.8261 y y y y y y y y 
   51   49   17  7.149e-05  1.320e-03 10.8261 y y y y y y y y 
   52   52   17  6.134e-05  1.094e-03 10.8261 y y y y y y y y 
   53   55   17  7.659e-05  1.405e-03 10.8261 y y y y y y y y 
   54   58   17  1.098e-04  1.991e-03 10.8261 y y y y y y y y 
   55   61   17  9.125e-05  1.689e-03 10.8261 y y y y y y y y 
   56   64   17  6.879e-05  1.301e-03 10.8261 y y y y y y y y 
   57   67   17  6.841e-05  1.317e-03 10.8261 y y y y y y y y 
   58   70   17  6.347e-05  1.216e-03 10.8261 y y y y y y y y 
   59   73   17  4.553e-05  8.634e-04 10.8261 y y y y y y y y 
--------------------------------------------------------------------------------
  Davidson Summary: 
 ------------------------------------------------------------
  State  0: excitation energy =  10.8261 a.u.   (converged)
  State  1: excitation energy =  10.8966 a.u.   (converged)
  State  2: excitation energy =  11.1416 a.u.   (converged)
  State  3: excitation energy =  11.1950 a.u.   (converged)
  State  4: excitation energy =  11.2467 a.u.   (converged)
  State  5: excitation energy =  11.2551 a.u.   (converged)
  State  6: excitation energy =  11.2973 a.u.   (converged)
  State  7: excitation energy =  11.3279 a.u.   (converged)
  State  8: excitation energy =  11.3358 a.u.   (converged)
  State  9: excitation energy =  11.5248 a.u.   (converged)
  State 10: excitation energy =  11.5280 a.u.   (converged)
  State 11: excitation energy =  11.5501 a.u.   (converged)
  State 12: excitation energy =  11.5762 a.u.   (converged)
  State 13: excitation energy =  11.5772 a.u.   (converged)
  State 14: excitation energy =  11.5897 a.u.   (converged)
  State 15: excitation energy =  11.5912 a.u.   (converged)
  State 16: excitation energy =  11.5953 a.u.   (converged)
  State 17: excitation energy =  12.2215 a.u.   (not converged)
  State 18: excitation energy =  12.2255 a.u.   (not converged)
  State 19: excitation energy =  12.2285 a.u.   (not converged)
 ------------------------------------------------------------


--------------------------------------------------------------------------------
                             Excited State Summary
--------------------------------------------------------------------------------

  Excited state  1 (A)                                             [converged]
  ----------------------------------------------------------------------------
  Term symbol:  2 (-) A                                     R^2 =  3.47289e-14

  Total energy:                                           -425.0873703615 a.u.
  Excitation energy:                                             294.592446 eV

  Osc. strength:                                                      0.000000
  Trans. dip. moment [a.u.]:           [  -0.000000,   -0.000001,    0.000000]
  <i|r^2|0> [a.u.]:                    [   0.000001,   -0.000014,   -0.000000]

  V1^2 = 0.9586, V2^2 = 0.0414

  Important amplitudes:
     core i     occ j      vir a      vir b          v   
    ------------------------------------------------------
     5 (A) B              21 (A) B                -0.6559
     5 (A) A              22 (A) A                 0.6559
    ------------------------------------------------------
  ----------------------------------------------------------------------------


  Excited state  2 (A)                                             [converged]
  ----------------------------------------------------------------------------
  Term symbol:  3 (-) A                                     R^2 =  6.50081e-14

  Total energy:                                           -425.0168062231 a.u.
  Excitation energy:                                             296.512593 eV

  Osc. strength:                                                      0.111290
  Trans. dip. moment [a.u.]:           [  -0.043573,   -0.110016,    0.036301]
  <i|r^2|0> [a.u.]:                    [   0.076723,   -1.247302,   -0.035012]

  V1^2 = 0.9541, V2^2 = 0.0459

  Important amplitudes:
     core i     occ j      vir a      vir b          v   
    ------------------------------------------------------
     5 (A) B              21 (A) B                -0.6670
     5 (A) A              22 (A) A                -0.6669
    ------------------------------------------------------
  ----------------------------------------------------------------------------


  Excited state  3 (A)                                             [converged]
  ----------------------------------------------------------------------------
  Term symbol:  4 (-) A                                     R^2 =  3.02835e-14

  Total energy:                                           -424.7718037524 a.u.
  Excitation energy:                                             303.179450 eV

  Osc. strength:                                                      0.000000
  Trans. dip. moment [a.u.]:           [  -0.000006,   -0.000015,    0.000004]
  <i|r^2|0> [a.u.]:                    [   0.000006,   -0.000182,   -0.000009]

  V1^2 = 0.9286, V2^2 = 0.0714

  Important amplitudes:
     core i     occ j      vir a      vir b          v   
    ------------------------------------------------------
     5 (A) A              23 (A) A                -0.6227
     5 (A) B              23 (A) B                 0.6221
    ------------------------------------------------------
  ----------------------------------------------------------------------------


  Excited state  4 (A)                                             [converged]
  ----------------------------------------------------------------------------
  Term symbol:  5 (-) A                                     R^2 =  2.12962e-14

  Total energy:                                           -424.7183963604 a.u.
  Excitation energy:                                             304.632739 eV

  Osc. strength:                                                      0.000141
  Trans. dip. moment [a.u.]:           [   0.002596,    0.002771,    0.002113]
  <i|r^2|0> [a.u.]:                    [   0.010546,    0.057700,    0.012471]

  V1^2 = 0.9180, V2^2 = 0.0820

  Important amplitudes:
     core i     occ j      vir a      vir b          v   
    ------------------------------------------------------
     5 (A) B              23 (A) B                 0.6546
     5 (A) A              23 (A) A                 0.6540
    ------------------------------------------------------
  ----------------------------------------------------------------------------


  Excited state  5 (A)                                             [converged]
  ----------------------------------------------------------------------------
  Term symbol:  6 (-) A                                     R^2 =  2.61473e-14

  Total energy:                                           -424.6667172620 a.u.
  Excitation energy:                                             306.038999 eV

  Osc. strength:                                                      0.000000
  Trans. dip. moment [a.u.]:           [  -0.000011,    0.000006,    0.000005]
  <i|r^2|0> [a.u.]:                    [   0.000020,    0.000069,   -0.000005]

  V1^2 = 0.9537, V2^2 = 0.0463

  Important amplitudes:
     core i     occ j      vir a      vir b          v   
    ------------------------------------------------------
     5 (A) A              27 (A) A                 0.5246
     5 (A) B              27 (A) B                -0.5244
    ------------------------------------------------------
  ----------------------------------------------------------------------------


  Excited state  6 (A)                                             [converged]
  ----------------------------------------------------------------------------
  Term symbol:  7 (-) A                                     R^2 =  2.67990e-14

  Total energy:                                           -424.6583913236 a.u.
  Excitation energy:                                             306.265559 eV

  Osc. strength:                                                      0.000000
  Trans. dip. moment [a.u.]:           [   0.000001,    0.000001,    0.000001]
  <i|r^2|0> [a.u.]:                    [  -0.000002,    0.000006,   -0.000001]

  V1^2 = 0.9535, V2^2 = 0.0465

  Important amplitudes:
     core i     occ j      vir a      vir b          v   
    ------------------------------------------------------
     5 (A) B              28 (A) B                 0.4511
     5 (A) A              28 (A) A                -0.4480
    ------------------------------------------------------
  ----------------------------------------------------------------------------


  Excited state  7 (A)                                             [converged]
  ----------------------------------------------------------------------------
  Term symbol:  8 (-) A                                     R^2 =  1.93411e-14

  Total energy:                                           -424.6161068216 a.u.
  Excitation energy:                                             307.416179 eV

  Osc. strength:                                                      0.000101
  Trans. dip. moment [a.u.]:           [  -0.003007,    0.001630,    0.001318]
  <i|r^2|0> [a.u.]:                    [   0.005452,    0.018452,   -0.001438]

  V1^2 = 0.8529, V2^2 = 0.1471

  Important amplitudes:
     core i     occ j      vir a      vir b          v   
    ------------------------------------------------------
     5 (A) B              22 (A) B                -0.9216
     5 (A) B   13 (A) A   22 (A) A   22 (A) B      0.0734
    ------------------------------------------------------
  ----------------------------------------------------------------------------


  Excited state  8 (A)                                             [converged]
  ----------------------------------------------------------------------------
  Term symbol:  9 (-) A                                     R^2 =  2.07396e-14

  Total energy:                                           -424.5855119388 a.u.
  Excitation energy:                                             308.248708 eV

  Osc. strength:                                                      0.120567
  Trans. dip. moment [a.u.]:           [  -0.103506,    0.056125,    0.045843]
  <i|r^2|0> [a.u.]:                    [   0.187347,    0.635760,   -0.050016]

  V1^2 = 0.9444, V2^2 = 0.0556

  Important amplitudes:
     core i     occ j      vir a      vir b          v   
    ------------------------------------------------------
     5 (A) B              24 (A) B                -0.4945
     5 (A) A              24 (A) A                -0.4939
    ------------------------------------------------------
  ----------------------------------------------------------------------------


  Excited state  9 (A)                                             [converged]
  ----------------------------------------------------------------------------
  Term symbol:  10 (-) A                                    R^2 =  1.96203e-14

  Total energy:                                           -424.5776523534 a.u.
  Excitation energy:                                             308.462578 eV

  Osc. strength:                                                      0.119277
  Trans. dip. moment [a.u.]:           [  -0.056859,   -0.014066,   -0.111141]
  <i|r^2|0> [a.u.]:                    [   0.103211,   -0.157746,    0.103225]

  V1^2 = 0.9440, V2^2 = 0.0560

  Important amplitudes:
     core i     occ j      vir a      vir b          v   
    ------------------------------------------------------
     5 (A) A              25 (A) A                -0.4910
     5 (A) B              25 (A) B                -0.4910
    ------------------------------------------------------
  ----------------------------------------------------------------------------


  Excited state 10 (A)                                             [converged]
  ----------------------------------------------------------------------------
  Term symbol:  11 (-) A                                    R^2 =  3.48489e-14

  Total energy:                                           -424.3886077943 a.u.
  Excitation energy:                                             313.606742 eV

  Osc. strength:                                                      0.000005
  Trans. dip. moment [a.u.]:           [   0.000279,    0.000728,   -0.000258]
  <i|r^2|0> [a.u.]:                    [  -0.000552,    0.008188,    0.000190]

  V1^2 = 0.9088, V2^2 = 0.0912

  Important amplitudes:
     core i     occ j      vir a      vir b          v   
    ------------------------------------------------------
     5 (A) A              26 (A) A                -0.6495
     5 (A) B              26 (A) B                 0.6346
    ------------------------------------------------------
  ----------------------------------------------------------------------------


  Excited state 11 (A)                                             [converged]
  ----------------------------------------------------------------------------
  Term symbol:  12 (-) A                                    R^2 =  4.93178e-14

  Total energy:                                           -424.3854601671 a.u.
  Excitation energy:                                             313.692393 eV

  Osc. strength:                                                      0.000001
  Trans. dip. moment [a.u.]:           [   0.000149,    0.000387,   -0.000136]
  <i|r^2|0> [a.u.]:                    [  -0.000291,    0.004353,    0.000103]

  V1^2 = 0.9192, V2^2 = 0.0808

  Important amplitudes:
     core i     occ j      vir a      vir b          v   
    ------------------------------------------------------
     5 (A) B              29 (A) B                 0.5377
     5 (A) A              29 (A) A                -0.5353
    ------------------------------------------------------
  ----------------------------------------------------------------------------


  Excited state 12 (A)                                             [converged]
  ----------------------------------------------------------------------------
  Term symbol:  13 (-) A                                    R^2 =  3.77009e-14

  Total energy:                                           -424.3633841651 a.u.
  Excitation energy:                                             314.293112 eV

  Osc. strength:                                                      0.042564
  Trans. dip. moment [a.u.]:           [   0.026210,    0.066092,   -0.021743]
  <i|r^2|0> [a.u.]:                    [  -0.046175,    0.749461,    0.020993]

  V1^2 = 0.9114, V2^2 = 0.0886

  Important amplitudes:
     core i     occ j      vir a      vir b          v   
    ------------------------------------------------------
     5 (A) B              26 (A) B                -0.6633
     5 (A) A              26 (A) A                -0.6493
    ------------------------------------------------------
  ----------------------------------------------------------------------------


  Excited state 13 (A)                                             [converged]
  ----------------------------------------------------------------------------
  Term symbol:  14 (-) A                                    R^2 =  7.68919e-14

  Total energy:                                           -424.3372236994 a.u.
  Excitation energy:                                             315.004974 eV

  Osc. strength:                                                      0.000002
  Trans. dip. moment [a.u.]:           [  -0.000375,    0.000199,    0.000164]
  <i|r^2|0> [a.u.]:                    [   0.000668,    0.002256,   -0.000173]

  V1^2 = 0.8955, V2^2 = 0.1045

  Important amplitudes:
     core i     occ j      vir a      vir b          v   
    ------------------------------------------------------
     5 (A) A              24 (A) A                 0.5093
     5 (A) B              24 (A) B                -0.5025
    ------------------------------------------------------
  ----------------------------------------------------------------------------


  Excited state 14 (A)                                             [converged]
  ----------------------------------------------------------------------------
  Term symbol:  15 (-) A                                    R^2 =  9.66868e-14

  Total energy:                                           -424.3362788832 a.u.
  Excitation energy:                                             315.030684 eV

  Osc. strength:                                                      0.000000
  Trans. dip. moment [a.u.]:           [  -0.000035,   -0.000067,    0.000014]
  <i|r^2|0> [a.u.]:                    [   0.000039,   -0.000782,   -0.000036]

  V1^2 = 0.8956, V2^2 = 0.1044

  Important amplitudes:
     core i     occ j      vir a      vir b          v   
    ------------------------------------------------------
     5 (A) A              25 (A) A                 0.5107
     5 (A) B              25 (A) B                -0.5105
    ------------------------------------------------------
  ----------------------------------------------------------------------------


  Excited state 15 (A)                                             [converged]
  ----------------------------------------------------------------------------
  Term symbol:  16 (-) A                                    R^2 =  1.49921e-13

  Total energy:                                           -424.3237916871 a.u.
  Excitation energy:                                             315.370478 eV

  Osc. strength:                                                      0.027866
  Trans. dip. moment [a.u.]:           [  -0.049245,    0.026662,    0.021695]
  <i|r^2|0> [a.u.]:                    [   0.087832,    0.302234,   -0.022664]

  V1^2 = 0.8991, V2^2 = 0.1009

  Important amplitudes:
     core i     occ j      vir a      vir b          v   
    ------------------------------------------------------
     5 (A) B              27 (A) B                -0.4955
     5 (A) A              27 (A) A                -0.4889
    ------------------------------------------------------
  ----------------------------------------------------------------------------


  Excited state 16 (A)                                             [converged]
  ----------------------------------------------------------------------------
  Term symbol:  17 (-) A                                    R^2 =  6.47105e-13

  Total energy:                                           -424.3222699887 a.u.
  Excitation energy:                                             315.411886 eV

  Osc. strength:                                                      0.029104
  Trans. dip. moment [a.u.]:           [  -0.027700,   -0.007008,   -0.054313]
  <i|r^2|0> [a.u.]:                    [   0.048774,   -0.079771,    0.050868]

  V1^2 = 0.8995, V2^2 = 0.1005

  Important amplitudes:
     core i     occ j      vir a      vir b          v   
    ------------------------------------------------------
     5 (A) B              25 (A) B                 0.4552
     5 (A) A              25 (A) A                 0.4550
    ------------------------------------------------------
  ----------------------------------------------------------------------------


  Excited state 17 (A)                                             [converged]
  ----------------------------------------------------------------------------
  Term symbol:  18 (-) A                                    R^2 =  6.67335e-13

  Total energy:                                           -424.3181898672 a.u.
  Excitation energy:                                             315.522911 eV

  Osc. strength:                                                      0.000101
  Trans. dip. moment [a.u.]:           [  -0.001261,    0.000602,   -0.003333]
  <i|r^2|0> [a.u.]:                    [   0.028079,    0.034642,    0.028659]

  V1^2 = 0.9182, V2^2 = 0.0818

  Important amplitudes:
     core i     occ j      vir a      vir b          v   
    ------------------------------------------------------
     5 (A) B              29 (A) B                 0.5757
     5 (A) A              29 (A) A                 0.5709
    ------------------------------------------------------
  ----------------------------------------------------------------------------


  Excited state 18 (A)                                         [not converged]
  ----------------------------------------------------------------------------
  Term symbol:  19 (-) A                                    R^2 =  2.35559e-05

  Total energy:                                           -423.6919618550 a.u.
  Excitation energy:                                             332.563442 eV


  V1^2 = 0.8713, V2^2 = 0.1287

  Important amplitudes:
     core i     occ j      vir a      vir b          v   
    ------------------------------------------------------
     5 (A) A              32 (A) A                 0.6047
     5 (A) B              32 (A) B                -0.5986
    ------------------------------------------------------
  ----------------------------------------------------------------------------


  Excited state 19 (A)                                         [not converged]
  ----------------------------------------------------------------------------
  Term symbol:  20 (-) A                                    R^2 =  8.63415e-04

  Total energy:                                           -423.6879497441 a.u.
  Excitation energy:                                             332.672617 eV


  V1^2 = 0.8705, V2^2 = 0.1295

  Important amplitudes:
     core i     occ j      vir a      vir b          v   
    ------------------------------------------------------
     5 (A) A              33 (A) A                 0.6560
     5 (A) B              33 (A) B                -0.6535
    ------------------------------------------------------
  ----------------------------------------------------------------------------


  Excited state 20 (A)                                         [not converged]
  ----------------------------------------------------------------------------
  Term symbol:  21 (-) A                                    R^2 =  2.88400e-04

  Total energy:                                           -423.6849748917 a.u.
  Excitation energy:                                             332.753567 eV


  V1^2 = 0.8698, V2^2 = 0.1302

  Important amplitudes:
     core i     occ j      vir a      vir b          v   
    ------------------------------------------------------
     5 (A) A              32 (A) A                -0.5975
     5 (A) B              32 (A) B                -0.5915
    ------------------------------------------------------
  ----------------------------------------------------------------------------


--------------------------------------------------------------------------------
  Time of ADC calculation:  CPU 1256.26 s  wall 1299.74 s
================================================================================
 
 --------------------------------------------------------------
 
                    Orbital Energies (a.u.)
 --------------------------------------------------------------
 
 Alpha MOs
 -- Occupied --
-26.753 -26.749 -26.749 -26.560 -11.950  -2.184  -2.078  -2.072
 -1.812  -1.329  -1.252  -1.251  -1.199  -1.078  -1.078  -1.053
 -1.050  -1.026  -0.980  -0.874  -0.872
 -- Virtual --
 -0.181  -0.005   0.213   0.215   0.330   0.416   0.422   0.431
  0.921   1.000   1.008   1.010   1.134   1.135   1.210   1.251
  1.259   1.260   1.279   1.287   1.288   1.305   1.363   1.424
  1.633   1.634   1.747   1.749   1.780   1.856   1.887   1.896
  1.904   1.908   1.925   1.957   1.959   1.963   1.968   2.062
  2.174   2.223   2.699   2.706   3.025   3.037   3.230   3.249
  3.252   3.566   4.177   4.678   4.929   4.956
 
 Beta MOs
 -- Occupied --
-26.753 -26.749 -26.749 -26.512 -11.950  -2.184  -2.078  -2.072
 -1.620  -1.329  -1.252  -1.251  -1.199  -1.078  -1.078  -1.053
 -1.050  -1.026  -0.822  -0.820
 -- Virtual --
 -0.181  -0.062  -0.005   0.213   0.215   0.331   0.417   0.422
  0.431   0.952   1.001   1.008   1.010   1.134   1.135   1.258
  1.260   1.271   1.287   1.287   1.304   1.305   1.363   1.429
  1.433   1.633   1.635   1.747   1.749   1.780   1.866   1.907
  1.908   1.958   1.958   1.968   1.973   1.992   1.993   2.006
  2.062   2.174   2.223   2.699   2.706   3.025   3.037   3.231
  3.249   3.252   3.607   4.177   4.678   4.929   4.956
 --------------------------------------------------------------
 
          Ground-State Mulliken Net Atomic Charges

     Atom                 Charge (a.u.)    Spin (a.u.)
  --------------------------------------------------------
      1 C                     1.214800      -0.000709
      2 F                    -0.077278       0.000029
      3 F                    -0.076970       0.000028
      4 F                     0.004646       1.000627
      5 F                    -0.065198       0.000025
  --------------------------------------------------------
  Sum of atomic charges =     1.000000
  Sum of spin   charges =     1.000000

 -----------------------------------------------------------------
                    Cartesian Multipole Moments
 -----------------------------------------------------------------
    Charge (ESU x 10^10)
                 4.8032
    Dipole Moment (Debye)
         X      -2.2999      Y      14.2606      Z      -1.2187
       Tot      14.4962
    Quadrupole Moments (Debye-Ang)
        XX     -19.2189     XY      -6.7511     YY      22.4826
        XZ       0.2080     YZ      -3.8634     ZZ     -20.4463
    Octopole Moments (Debye-Ang^2)
       XXX      41.7778    XXY     -45.3179    XYY      -4.8916
       YYY     -15.0148    XXZ       1.1913    XYZ       1.1029
       YYZ     -11.9711    XZZ      13.1720    YZZ     -47.3449
       ZZZ      -0.6328
    Hexadecapole Moments (Debye-Ang^3)
      XXXX    -141.2112   XXXY      73.7999   XXYY    -168.6574
      XYYY      16.9835   YYYY    -506.7666   XXXZ       7.2246
      XXYZ      11.2942   XYYZ       7.1485   YYYZ      -4.8255
      XXZZ     -37.0061   XYZZ      21.7270   YYZZ    -162.1556
      XZZZ      11.7085   YZZZ      30.4838   ZZZZ     -91.1280
 -----------------------------------------------------------------
Archival summary:
1\1\tp-linux1\SP\HF\6-31G*\41(1+,2)\thomas\WedMar2220:06:072017WedMar2220:06:072017\0\\#,HF,6-31G*,\\1,2\C\F,1,1.20059\F,1,1.20964,2,120.113\F,1,1.20988,2,120.116,3,178.088,0\F,1,3.46055,2,94.0473,3,-91.0998,0\\HF=-435.176565\\@

 Total job time:  1349.34s(wall), 1277.68s(cpu) 
 Wed Mar 22 20:06:07 2017

        *************************************************************
        *                                                           *
        *  Thank you very much for using Q-Chem.  Have a nice day.  *
        *                                                           *
        *************************************************************


0 sent ACK to 0 
now end server 0 ... 
cleanup process ... done
