
Running Job 1 of 1 ddtraj1t26.inp
qchem ddtraj1t26.inp_17612.0 /scratch/qchem/qchem17612/ 1
/mnt/software/qchem/bin/mpi/mpirun_qchem -machinefile /mnt/software/qchem/bin/mpi/machines -np 1 /mnt/software/qchem/exe/qcprog.exe ddtraj1t26.inp_17612.0 /scratch/qchem/qchem17612/

Process 0 of 1 is on tp-linux1 - thread support 0
initial socket setup ...start
initial socket setup ...done 
now start server 0 ... 

cmd = ssh tp-linux1 /mnt/software/qchem/bin/get_hostid 303733431 > /scratch/qchem/qchem17612/lic.dat
                  Welcome to Q-Chem
     A Quantum Leap Into The Future Of Chemistry


 Q-Chem 4.3, Q-Chem, Inc., Pleasanton, CA (2015)

 Y. Shao,  Z. Gan,  E. Epifanovsky,  A. T. B. Gilbert,  M. Wormit,  
 J. Kussmann,  A. W. Lange,  A. Behn,  J. Deng,  X. Feng,  D. Ghosh,  
 M. Goldey,  P. R. Horn,  L. D. Jacobson,  I. Kaliman,  R. Z. Khaliullin,  
 T. Kus,  A. Landau,  J. Liu,  E. I. Proynov,  Y. M. Rhee,  R. M. Richard,  
 M. A. Rohrdanz,  R. P. Steele,  E. J. Sundstrom,  H. L. Woodcock III,  
 P. M. Zimmerman,  D. Zuev,  B. Albrecht,  E. Alguire,  B. Austin,  
 S. A. Baeppler,  G. J. O. Beran,  Y. A. Bernard,  E. Berquist,  
 K. Brandhorst,  K. B. Bravaya,  S. T. Brown,  D. Casanova,  C.-M. Chang,  
 Y. Chen,  S. H. Chien,  K. D. Closser,  D. L. Crittenden,  M. Diedenhofen,  
 R. A. DiStasio Jr.,  H. Do,  A. D. Dutoi,  R. G. Edgar,  P.-T. Fang,  
 S. Fatehi,  Q. Feng,  L. Fusti-Molnar,  A. Ghysels,  
 A. Golubeva-Zadorozhnaya,  J. Gomes,  A. Gunina,  M. W. D. Hanson-Heine,  
 P. H. P. Harbach,  A. W. Hauser,  E. G. Hohenstein,  Z. C. Holden,  K. Hui,  
 T.-C. Jagau,  H. Ji,  B. Kaduk,  K. Khistyaev,  Jaehoon Kim,  Jihan Kim,  
 R. A. King,  P. Klunzinger,  D. Kosenkov,  T. Kowalczyk,  C. M. Krauter,  
 K. U. Lao,  A. Laurent,  K. V. Lawler,  S. Lehtola,  S. V. Levchenko,  
 C. Y. Lin,  Y.-S. Lin,  F. Liu,  E. Livshits,  R. C. Lochan,  A. Luenser,  
 P. Manohar,  S. F. Manzer,  S.-P. Mao,  N. Mardirossian,  A. V. Marenich,  
 L. A. Martinez-Martinez,  S. A. Maurer,  N. J. Mayhall,  K. Nanda,  
 C. M. Oana,  R. Olivares-Amaya,  D. P. O'Neill,  J. A. Parkhill,  
 T. M. Perrine,  R. Peverati,  P. A. Pieniazek,  F. Plasser,  A. Prociuk,  
 D. R. Rehn,  E. Rosta,  N. J. Russ,  N. Sergueev,  S. M. Sharada,  
 S. Sharma,  D. W. Small,  A. Sodt,  T. Stauch,  T. Stein,  D. Stuck,  
 Y.-C. Su,  A. J. W. Thom,  T. Tsuchimochi,  L. Vogt,  O. Vydrov,  T. Wang,  
 M. A. Watson,  J. Wenzel,  A. White,  C. F. Williams,  V. Vanovschi,  
 S. Yeganeh,  S. R. Yost,  Z.-Q. You,  I. Y. Zhang,  X. Zhang,  Y. Zhao,  
 B. R. Brooks,  G. K. L. Chan,  D. M. Chipman,  C. J. Cramer,  
 W. A. Goddard III,  M. S. Gordon,  W. J. Hehre,  A. Klamt,  
 H. F. Schaefer III,  M. W. Schmidt,  C. D. Sherrill,  D. G. Truhlar,  
 A. Warshel,  X. Xu,  A. Aspuru-Guzik,  R. Baer,  A. T. Bell,  N. A. Besley,  
 J.-D. Chai,  A. Dreuw,  B. D. Dunietz,  T. R. Furlani,  S. R. Gwaltney,  
 C.-P. Hsu,  Y. Jung,  J. Kong,  D. S. Lambrecht,  W. Liang,  C. Ochsenfeld,  
 V. A. Rassolov,  L. V. Slipchenko,  J. E. Subotnik,  T. Van Voorhis,  
 J. M. Herbert,  A. I. Krylov,  P. M. W. Gill,  M. Head-Gordon

 Contributors to earlier versions of Q-Chem not listed above: 
 R. D. Adamson,  J. Baker,  E. F. C. Byrd,  A. K. Chakraborty,  C.-L. Cheng,  
 H. Dachsel,  R. J. Doerksen,  G. Hawkins,  A. Heyden,  S. Hirata,  
 G. Kedziora,  F. J. Keil,  C. Kelley,  P. P. Korambath,  W. Kurlancheek,  
 A. M. Lee,  M. S. Lee,  D. Liotard,  I. Lotan,  P. E. Maslen,  N. Nair,  
 D. Neuhauser,  R. Olson,  B. Peters,  J. Ritchie,  N. E. Schultz,  
 N. Shenvi,  A. C. Simmonett,  K. S. Thanthiriwatte,  Q. Wu,  W. Zhang

 Please cite Q-Chem as follows:
 Y. Shao et al., Mol. Phys. 113, 184-215 (2015)
 DOI: 10.1080/00268976.2014.952696

 Q-Chem 4.3.0 for Intel X86 Linux

 Parts of Q-Chem use Armadillo 5.200.1 (Boston Tea Smuggler).
 http://arma.sourceforge.net/

 Q-Chem begins on Wed Mar 22 10:45:51 2017  

Host: 
0

     Scratch files written to /scratch/qchem/qchem17612//
 Nov1815 1189b_ 19540  19532 5443   
 Parallel job on  1  processors
Processing $rem in /mnt/software/qchem/config/preferences.
 MEM_TOTAL  2000 

Checking the input file for inconsistencies... 	...done.

--------------------------------------------------------------
User input:
--------------------------------------------------------------
$comment
XAS calculation for valence excited states for CF4+ using cvs-adc(2) + 6-31G* basis set
job 1 - determination of HF orbitals
$end

$molecule
1 2
6  -0.479085  2.944754  -0.227009
9  0.589481  2.413343  -0.031888
9  -1.102116  3.334446  0.733468
9  -1.334855  0.622697  0.664927
9  -1.088981  2.652332  -1.223121
$end

$comment
cvs-adc(2) calculation
$end

$rem
mem_total 3000
mem_static 1500
sym_ignore true
method cvs-adc(2)
basis 6-31G*
ee_singlets 20
cc_rest_occ 5                  !only excitations from the lowest N orbitals
unrestricted  true
max_scf_cycles 200
SCF_ALGORITHM = DIIS_GDM
SCF_CONVERGENCE = 7
THRESH = 10
$end
--------------------------------------------------------------
 ----------------------------------------------------------------
             Standard Nuclear Orientation (Angstroms)
    I     Atom           X                Y                Z
 ----------------------------------------------------------------
    1      C      -0.4790850000     2.9447540000    -0.2270090000
    2      F       0.5894810000     2.4133430000    -0.0318880000
    3      F      -1.1021160000     3.3344460000     0.7334680000
    4      F      -1.3348550000     0.6226970000     0.6649270000
    5      F      -1.0889810000     2.6523320000    -1.2231210000
 ----------------------------------------------------------------
 Nuclear Repulsion Energy =   190.8165536331 hartrees
 There are       21 alpha and       20 beta electrons
 Requested basis set is 6-31G(d)
 There are 20 shells and 75 basis functions

 Total QAlloc Memory Limit   3000 MB
 Mega-Array Size      1467 MB
 MEM_STATIC part      1500 MB

                       Distance Matrix (Angstroms)
             C (  1)   F (  2)   F (  3)   F (  4)
   F (  2)  1.209257
   F (  3)  1.209357  2.072607
   F (  4)  2.630559  2.719381  2.722581
   F (  5)  1.204044  2.072049  2.072123  2.782912
 
 tim1(1): 
  0.000000000000000E+000
 tim1(2): 
  0.000000000000000E+000
 A cutoff of  1.0D-10 yielded    196 shell pairs
 There are      2950 function pairs
 
 -------------------------------------------------------
 OpenMP Integral Computing Module                       
 Release: version 1.0, May 2013, Q-Chem Inc. Pittsburgh 
 -------------------------------------------------------
 Integral Job Info:
 Integral job number is                      11
 Integral operator is                         1
 short-range coefficients                     0
 long-range coefficients              100000000
 Omega coefficients                           0
 if combine SR and LR in K                    0
 Integral screening is                        0
 Integral computing path is                   2
 max size of driver memory is            800000
 size of driver memory is                593474
 size of scratch memory is              2260544
 max col of scratch BK array               1296
 max len of scratch array in speh3          155
 max len of scratch index in speh4           18
 max int batch size is                      520
 min int batch size is                       52
 fixed nKL is                                52
 max L of basis functions is                  2
 order of int derivative is                   0
 number of shells is                         20
 number of basis is                          75
 number of cartesian basis is                75
 number of contracted shell pairs           196
 number of primitive shell pairs           1001
 maxK2 (contraction) of shell pair           36
 max number of K2 of shell pair               1
 max number of CS2 of shell pair             32
 max number of PS2 of shell pair            192
 mem total for path MDJ                   21832
 -------------------------------------------------------
 Smallest overlap matrix eigenvalue = 2.38E-03

 Scale SEOQF with 1.000000e+00/1.000000e-01/1.000000e+00

 Standard Electronic Orientation quadrupole field applied
 Nucleus-field energy     =     0.0000000102 hartrees
 Guess from superposition of atomic densities
 Warning:  Energy on first SCF cycle will be non-variational
 An unrestricted Hartree-Fock SCF calculation will be
 performed using Pulay DIIS + Geometric Direct Minimization
 SCF converges when RMS gradient is below 1.0E-07
 ---------------------------------------
  Cycle       Energy         DIIS Error
 ---------------------------------------
    1    -436.5149699554      9.48E-02
    2    -434.9782189603      1.77E-02
    3    -435.1329457649      8.05E-03 Done DIIS. Switching to GDM
    4    -435.1625520280      9.10E-03 Normal BFGS step
    5    -435.1635423517      8.19E-03 Normal BFGS step
    6    -435.1638676724      2.50E-03 Normal BFGS step
    7    -435.1638937836      2.44E-03 Normal BFGS step
    8    -435.1639059002      2.37E-03 Normal BFGS step
    9    -435.1639250640      2.25E-03 Normal BFGS step
   10    -435.1639632008      1.98E-03 Normal BFGS step
   11    -435.1640325053      1.83E-03 Normal BFGS step
   12    -435.1641197029      1.81E-03 Normal BFGS step
   13    -435.1641768712      9.64E-04 Normal BFGS step
   14    -435.1641918973      1.93E-04 Normal BFGS step
   15    -435.1641930078      1.10E-04 Normal BFGS step
   16    -435.1641931231      5.24E-05 Normal BFGS step
   17    -435.1641931456      2.13E-05 Normal BFGS step
   18    -435.1641931511      2.00E-05 Normal BFGS step
   19    -435.1641931537      2.00E-05 Normal BFGS step
   20    -435.1641931544      2.00E-05 Normal BFGS step
   21    -435.1641931562      2.00E-05 Normal BFGS step
   22    -435.1641931596      2.01E-05 Normal BFGS step
   23    -435.1641931688      2.69E-05 Normal BFGS step
   24    -435.1641931918      4.45E-05 Normal BFGS step
   25    -435.1641932523      7.13E-05 Normal BFGS step
   26    -435.1641934120      1.15E-04 Normal BFGS step
   27    -435.1641938392      1.95E-04 Normal BFGS step
   28    -435.1641942259      7.38E-04 Normal BFGS step
   29    -435.1641952659      2.61E-04 Normal BFGS step
   30    -435.1641976847      1.46E-04 Normal BFGS step
   31    -435.1641627051      1.70E-02 Line search: overstep
   32    -435.1641984282      2.87E-04 Dog-leg BFGS step
   33    -435.1641997645      1.09E-03 Normal BFGS step
   34    -435.1642006968      2.49E-04 Normal BFGS step
   35    -435.1642014218      3.08E-04 Normal BFGS step
   36    -435.1641922525      1.04E-02 Line search: overstep
   37    -435.1642023804      4.84E-04 Dog-leg BFGS step
   38    -435.1642039872      1.16E-03 Normal BFGS step
   39    -435.1642059747      4.09E-04 Normal BFGS step
   40    -435.1642078153      6.66E-04 Normal BFGS step
   41    -435.1642096986      7.95E-04 Normal BFGS step
   42    -435.1642122907      4.22E-04 Normal BFGS step
   43    -435.1641924104      1.30E-02 Line search: overstep
   44    -435.1642128876      4.14E-04 Dog-leg BFGS step
   45    -435.1642137304      1.21E-03 Normal BFGS step
   46    -435.1642148389      2.21E-04 Normal BFGS step
   47    -435.1642155287      2.44E-04 Normal BFGS step
   48    -435.1642119254      7.42E-03 Line search: overstep
   49    -435.1642163886      4.47E-04 Dog-leg BFGS step
   50    -435.1642168440      1.20E-03 Normal BFGS step
   51    -435.1642180196      1.83E-04 Normal BFGS step
   52    -435.1642186357      1.57E-04 Normal BFGS step
   53    -435.1642148933      6.67E-03 Line search: overstep
   54    -435.1642192356      2.98E-04 Dog-leg BFGS step
   55    -435.1642195496      9.66E-04 Normal BFGS step
   56    -435.1642203983      6.34E-05 Normal BFGS step
   57    -435.1642207696      7.53E-05 Normal BFGS step
   58    -435.1642186586      4.84E-03 Line search: overstep
   59    -435.1642210645      1.90E-04 Normal BFGS step
   60    -435.1642211854      6.72E-04 Normal BFGS step
   61    -435.1642215850      1.05E-04 Normal BFGS step
   62    -435.1642217604      7.50E-05 Normal BFGS step
   63    -435.1642218383      5.19E-04 Normal BFGS step
   64    -435.1642220543      3.44E-05 Normal BFGS step
   65    -435.1642221358      3.20E-05 Normal BFGS step
   66    -435.1642221247      9.82E-04 Line search: overstep
   67    -435.1642222035      1.17E-04 Normal BFGS step
   68    -435.1642222394      1.02E-04 Normal BFGS step
   69    -435.1642222759      2.12E-05 Normal BFGS step
   70    -435.1642222835      2.65E-05 Normal BFGS step
   71    -435.1642222859      1.72E-05 Normal BFGS step
   72    -435.1642222868      1.63E-05 Normal BFGS step
   73    -435.1642222877      1.54E-05 Normal BFGS step
   74    -435.1642222889      1.40E-05 Normal BFGS step
   75    -435.1642222909      1.21E-05 Normal BFGS step
   76    -435.1642222940      1.76E-05 Normal BFGS step
   77    -435.1642222977      1.83E-05 Normal BFGS step
   78    -435.1642223006      1.11E-05 Normal BFGS step
   79    -435.1642223016      3.19E-06 Normal BFGS step
   80    -435.1642223017      1.59E-06 Normal BFGS step
   81    -435.1642223017      9.43E-07 Normal BFGS step
   82    -435.1642223017      2.69E-07 Normal BFGS step
   83    -435.1642223017      8.22E-08 Convergence criterion met
 ---------------------------------------
 <S^2> = 0.7530
 SCF time:  CPU 13.74 s  wall 20.37 s
 SCF   energy in the final basis set = -435.1642223017
 Total energy in the final basis set = -435.1642223017
================================================================================
|                                                                              |
|                                 A D C  M A N                                 |
|                                                                              |
 ------------------------------------------------------------------------------ 
|                                                                              |
| Components:                                                                  |
|                                                                              |
| - libvmm - 1.2-release                                                       |
|   Authors:                                                                   |
|   Evgeny Epifanovsky, Ilya Kaliman                                           |
|                                                                              |
| - libtensor - 2.4-trunk                                                      |
|   Authors:                                                                   |
|   Evgeny Epifanovsky, Michael Wormit, Dmitry Zuev, Sam Manzer                |
|                                                                              |
| - libwfa - 1.1-beta                                                          |
|   Authors:                                                                   |
|   Felix Plasser, Stefanie Baeppler, Benjamin Thomitzni, Michael Wormit       |
|                                                                              |
| - libadc - 1.0-beta                                                          |
|   Authors:                                                                   |
|   Michael Wormit, Philipp H. P. Harbach, Caroline Krauter, Dirk Rehn,        |
|   Matthias Schneider, Jan Wenzel                                             |
|                                                                              |
| - adcman - 2.4-beta                                                          |
|   Authors:                                                                   |
|   Michael Wormit, Philipp H. P. Harbach, Caroline Krauter, Dirk Rehn,        |
|   Jan Wenzel, Andreas Dreuw                                                  |
|                                                                              |
| Authors of earlier versions of ADCMAN:                                       |
| Andreas Dreuw, Jan Hendrik Starcke, Dirk Rehn, Michael Wormit                |
|                                                                              |
================================================================================

 
 Alpha MOs, Unrestricted
 -- Occupied --                  
-26.745 -26.742 -26.742 -26.612 -11.947  -2.181  -2.069  -2.066
  1 A     2 A     3 A     4 A     5 A     6 A     7 A     8 A                  
 -1.864  -1.325  -1.245  -1.245  -1.195  -1.074  -1.074  -1.045
  9 A    10 A    11 A    12 A    13 A    14 A    15 A    16 A                  
 -1.044  -1.027  -1.019  -0.925  -0.922
 17 A    18 A    19 A    20 A    21 A                                          
 -- Virtual --                   
 -0.219   0.077   0.198   0.201   0.359   0.417   0.422   0.448
 22 A    23 A    24 A    25 A    26 A    27 A    28 A    29 A                  
  0.956   1.011   1.011   1.018   1.070   1.089   1.181   1.217
 30 A    31 A    32 A    33 A    34 A    35 A    36 A    37 A                  
  1.271   1.287   1.288   1.311   1.318   1.327   1.387   1.505
 38 A    39 A    40 A    41 A    42 A    43 A    44 A    45 A                  
  1.652   1.653   1.745   1.748   1.785   1.811   1.830   1.846
 46 A    47 A    48 A    49 A    50 A    51 A    52 A    53 A                  
  1.859   1.877   1.929   1.963   1.985   1.998   1.999   2.096
 54 A    55 A    56 A    57 A    58 A    59 A    60 A    61 A                  
  2.370   2.583   2.671   2.678   3.004   3.010   3.224   3.227
 62 A    63 A    64 A    65 A    66 A    67 A    68 A    69 A                  
  3.296   3.669   4.300   4.741   4.756   5.607
 70 A    71 A    72 A    73 A    74 A    75 A                                  
 
 Beta MOs, Unrestricted
 -- Occupied --                  
-26.745 -26.742 -26.742 -26.564 -11.947  -2.181  -2.069  -2.066
  1 A     2 A     3 A     4 A     5 A     6 A     7 A     8 A                  
 -1.671  -1.325  -1.245  -1.245  -1.195  -1.074  -1.073  -1.044
  9 A    10 A    11 A    12 A    13 A    14 A    15 A    16 A                  
 -1.042  -1.019  -0.872  -0.870
 17 A    18 A    19 A    20 A                                                  
 -- Virtual --                   
 -0.219  -0.112   0.078   0.200   0.201   0.361   0.418   0.423
 21 A    22 A    23 A    24 A    25 A    26 A    27 A    28 A                  
  0.451   0.973   1.011   1.012   1.032   1.093   1.102   1.228
 29 A    30 A    31 A    32 A    33 A    34 A    35 A    36 A                  
  1.255   1.279   1.287   1.288   1.311   1.337   1.391   1.429
 37 A    38 A    39 A    40 A    41 A    42 A    43 A    44 A                  
  1.515   1.654   1.655   1.749   1.751   1.785   1.847   1.857
 45 A    46 A    47 A    48 A    49 A    50 A    51 A    52 A                  
  1.859   1.946   1.947   1.968   1.977   1.986   1.999   2.006
 53 A    54 A    55 A    56 A    57 A    58 A    59 A    60 A                  
  2.096   2.373   2.591   2.672   2.678   3.004   3.010   3.224
 61 A    62 A    63 A    64 A    65 A    66 A    67 A    68 A                  
  3.227   3.300   3.705   4.300   4.741   4.756   5.610
 69 A    70 A    71 A    72 A    73 A    74 A    75 A                          
 

--------------------------------------------------------------------------------
                                   HF Summary                                   
--------------------------------------------------------------------------------
  Energy:                                                 -435.1642223017 a.u.
  Dip. moment [a.u.]:                  [ -54.448527,  181.326823,    0.282743]
  Total dipole [Debye]:                                             481.217471
  <r^2> [a.u.]:                        [ 164.777224,  952.931095,   96.001818]
  Total <r^2> [a.u.]:                                              1213.710137
--------------------------------------------------------------------------------

--------------------------------------------------------------------------------
                                 MP(2) Summary                                  
--------------------------------------------------------------------------------
  Energy contribution:                                      -0.7398497935 a.u.
  Total energy:                                           -435.9040720952 a.u.
  Dip. moment [a.u.]:                  [ -54.406820,  181.436176,    0.243300]
  Total dipole [Debye]:                                             481.453084
  <r^2> [a.u.]:                        [ 164.483969,  954.228537,   95.805857]
  Total <r^2> [a.u.]:                                              1214.518363
--------------------------------------------------------------------------------
  Starting Davidson ... 
--------------------------------------------------------------------------------
   It NVec Conv  Avg. Norm  Max. Norm  Conv. states           Remark
--------------------------------------------------------------------------------
        20    0  2.097e-01  1.152e+00 10.9663 n n n n n n n n Guess.
    1   40    0  4.214e-02  6.427e-01 10.8048 n n n n n n n n 
    2   60    0  7.852e-03  7.212e-02 10.8034 n n n n n n n n 
    3   80    0  2.767e-03  2.991e-02 10.8034 n n n n n n n n 
    4  100    0  1.514e-03  1.845e-02 10.8034 n n n n n n n n 
    5   40    0  9.372e-04  1.140e-02 10.8034 n n n n n n n n Subspace collapsed.
    6   60    0  1.120e-03  1.504e-02 10.8034 n n n n n n n n 
    7   80    0  1.119e-03  1.645e-02 10.8034 n n n n n n n n 
    8  100    2  1.386e-03  2.353e-02 10.8034 y y n n n n n n 
    9   40    7  7.344e-04  1.290e-02 10.8034 y y n y y n y y Subspace collapsed.
   10   60    8  6.982e-04  1.288e-02 10.8034 y y n y y y y y 
   11   80    8  5.226e-04  9.706e-03 10.8034 y y n y y y y y 
   12  100   13  8.559e-04  1.613e-02 10.8034 y y y y y y y y 
   13   40   15  5.052e-04  9.581e-03 10.8034 y y y y y y y y Subspace collapsed.
   14   60   15  6.306e-04  1.191e-02 10.8034 y y y y y y y y 
   15   80   15  6.440e-04  1.214e-02 10.8034 y y y y y y y y 
   16   99   17  1.095e-03  2.074e-02 10.8034 y y y y y y y y 
   17  100   17  1.097e-03  2.079e-02 10.8034 y y y y y y y y 
   18   38   17  6.116e-04  1.168e-02 10.8034 y y y y y y y y Subspace collapsed.
   19   56   17  6.235e-04  1.200e-02 10.8034 y y y y y y y y 
   20   57   17  6.241e-04  1.201e-02 10.8034 y y y y y y y y 
   21   58   17  6.232e-04  1.199e-02 10.8034 y y y y y y y y 
   22   59   17  6.246e-04  1.202e-02 10.8034 y y y y y y y y 
   23   74   17  4.948e-04  9.572e-03 10.8034 y y y y y y y y 
   24   86   17  6.550e-04  1.266e-02 10.8034 y y y y y y y y 
   25   98   17  1.499e-03  2.893e-02 10.8034 y y y y y y y y 
   26  100   17  1.489e-03  2.875e-02 10.8034 y y y y y y y y 
   27   31   17  7.420e-04  1.436e-02 10.8034 y y y y y y y y Subspace collapsed.
   28   42   17  4.274e-04  8.155e-03 10.8034 y y y y y y y y 
   29   53   17  4.847e-04  9.414e-03 10.8034 y y y y y y y y 
   30   64   17  4.654e-04  9.013e-03 10.8034 y y y y y y y y 
   31   65   17  4.654e-04  9.014e-03 10.8034 y y y y y y y y 
   32   66   17  4.657e-04  9.017e-03 10.8034 y y y y y y y y 
   33   67   17  4.658e-04  9.018e-03 10.8034 y y y y y y y y 
   34   68   17  4.665e-04  9.030e-03 10.8034 y y y y y y y y 
   35   68   17  4.665e-04  9.030e-03 10.8034 y y y y y y y y 
   36   88   17  5.553e-04  1.071e-02 10.8034 y y y y y y y y 
   37   94   17  8.056e-04  1.543e-02 10.8034 y y y y y y y y 
   38   98   17  6.257e-04  1.169e-02 10.8034 y y y y y y y y 
   39  100   17  5.765e-04  1.069e-02 10.8034 y y y y y y y y 
   40   24   17  2.558e-04  4.729e-03 10.8034 y y y y y y y y Subspace collapsed.
   41   28   17  2.664e-04  5.072e-03 10.8034 y y y y y y y y 
   42   32   17  2.661e-04  5.068e-03 10.8034 y y y y y y y y 
   43   36   17  3.006e-04  5.691e-03 10.8034 y y y y y y y y 
   44   40   17  2.507e-04  4.695e-03 10.8034 y y y y y y y y 
   45   44   17  2.294e-04  4.252e-03 10.8034 y y y y y y y y 
   46   47   17  2.173e-04  4.080e-03 10.8034 y y y y y y y y 
   47   50   17  2.006e-04  3.685e-03 10.8034 y y y y y y y y 
   48   53   17  1.818e-04  3.265e-03 10.8034 y y y y y y y y 
   49   56   17  2.560e-04  4.459e-03 10.8034 y y y y y y y y 
   50   59   17  2.746e-04  4.307e-03 10.8034 y y y y y y y y 
   51   62   17  2.011e-04  2.850e-03 10.8034 y y y y y y y y 
   52   65   17  1.443e-04  2.106e-03 10.8034 y y y y y y y y 
   53   68   17  8.830e-05  1.290e-03 10.8034 y y y y y y y y 
   54   71   17  6.375e-05  1.002e-03 10.8034 y y y y y y y y 
   55   74   17  4.304e-05  6.954e-04 10.8034 y y y y y y y y 
   56   77   17  2.500e-05  4.180e-04 10.8034 y y y y y y y y 
   57   80   17  1.158e-05  1.917e-04 10.8034 y y y y y y y y 
   58   83   17  5.559e-06  9.086e-05 10.8034 y y y y y y y y 
   59   86   17  2.386e-06  3.762e-05 10.8034 y y y y y y y y 
--------------------------------------------------------------------------------
  Davidson Summary: 
 ------------------------------------------------------------
  State  0: excitation energy =  10.8034 a.u.   (converged)
  State  1: excitation energy =  10.8732 a.u.   (converged)
  State  2: excitation energy =  11.1801 a.u.   (converged)
  State  3: excitation energy =  11.1960 a.u.   (converged)
  State  4: excitation energy =  11.2368 a.u.   (converged)
  State  5: excitation energy =  11.2402 a.u.   (converged)
  State  6: excitation energy =  11.2422 a.u.   (converged)
  State  7: excitation energy =  11.3156 a.u.   (converged)
  State  8: excitation energy =  11.3209 a.u.   (converged)
  State  9: excitation energy =  11.5157 a.u.   (converged)
  State 10: excitation energy =  11.5679 a.u.   (converged)
  State 11: excitation energy =  11.5682 a.u.   (converged)
  State 12: excitation energy =  11.5687 a.u.   (converged)
  State 13: excitation energy =  11.5834 a.u.   (converged)
  State 14: excitation energy =  11.5846 a.u.   (converged)
  State 15: excitation energy =  11.5957 a.u.   (converged)
  State 16: excitation energy =  11.6311 a.u.   (converged)
  State 17: excitation energy =  12.2204 a.u.   (not converged)
  State 18: excitation energy =  12.2222 a.u.   (not converged)
  State 19: excitation energy =  12.2270 a.u.   (not converged)
 ------------------------------------------------------------


--------------------------------------------------------------------------------
                             Excited State Summary
--------------------------------------------------------------------------------

  Excited state  1 (A)                                             [converged]
  ----------------------------------------------------------------------------
  Term symbol:  2 (-) A                                     R^2 =  2.42492e-13

  Total energy:                                           -425.1006788599 a.u.
  Excitation energy:                                             293.975281 eV

  Osc. strength:                                                      0.000000
  Trans. dip. moment [a.u.]:           [   0.000007,    0.000018,   -0.000007]
  <i|r^2|0> [a.u.]:                    [  -0.000012,    0.000204,    0.000006]

  V1^2 = 0.9576, V2^2 = 0.0424

  Important amplitudes:
     core i     occ j      vir a      vir b          v   
    ------------------------------------------------------
     5 (A) B              21 (A) B                 0.6493
     5 (A) A              22 (A) A                -0.6491
    ------------------------------------------------------
  ----------------------------------------------------------------------------


  Excited state  2 (A)                                             [converged]
  ----------------------------------------------------------------------------
  Term symbol:  3 (-) A                                     R^2 =  1.53820e-13

  Total energy:                                           -425.0308954932 a.u.
  Excitation energy:                                             295.874183 eV

  Osc. strength:                                                      0.100616
  Trans. dip. moment [a.u.]:           [   0.040573,    0.104539,   -0.036137]
  <i|r^2|0> [a.u.]:                    [  -0.067768,    1.172334,    0.036557]

  V1^2 = 0.9527, V2^2 = 0.0473

  Important amplitudes:
     core i     occ j      vir a      vir b          v   
    ------------------------------------------------------
     5 (A) A              22 (A) A                 0.6620
     5 (A) B              21 (A) B                 0.6618
    ------------------------------------------------------
  ----------------------------------------------------------------------------


  Excited state  3 (A)                                             [converged]
  ----------------------------------------------------------------------------
  Term symbol:  4 (-) A                                     R^2 =  1.58979e-13

  Total energy:                                           -424.7240017722 a.u.
  Excitation energy:                                             304.225186 eV

  Osc. strength:                                                      0.000000
  Trans. dip. moment [a.u.]:           [  -0.000040,   -0.000111,    0.000045]
  <i|r^2|0> [a.u.]:                    [   0.000122,   -0.001131,    0.000010]

  V1^2 = 0.9306, V2^2 = 0.0694

  Important amplitudes:
     core i     occ j      vir a      vir b          v   
    ------------------------------------------------------
     5 (A) A              23 (A) A                 0.6072
     5 (A) B              23 (A) B                -0.6022
    ------------------------------------------------------
  ----------------------------------------------------------------------------


  Excited state  4 (A)                                             [converged]
  ----------------------------------------------------------------------------
  Term symbol:  5 (-) A                                     R^2 =  8.59450e-14

  Total energy:                                           -424.7081212163 a.u.
  Excitation energy:                                             304.657317 eV

  Osc. strength:                                                      0.000013
  Trans. dip. moment [a.u.]:           [   0.001070,   -0.000584,   -0.000459]
  <i|r^2|0> [a.u.]:                    [  -0.001957,   -0.006557,    0.000462]

  V1^2 = 0.8534, V2^2 = 0.1466

  Important amplitudes:
     core i     occ j      vir a      vir b          v   
    ------------------------------------------------------
     5 (A) B              22 (A) B                 0.9219
     5 (A) B   13 (A) A   22 (A) A   22 (A) B     -0.0724
    ------------------------------------------------------
  ----------------------------------------------------------------------------


  Excited state  5 (A)                                             [converged]
  ----------------------------------------------------------------------------
  Term symbol:  6 (-) A                                     R^2 =  2.00716e-13

  Total energy:                                           -424.6672811401 a.u.
  Excitation energy:                                             305.768632 eV

  Osc. strength:                                                      0.000000
  Trans. dip. moment [a.u.]:           [   0.000105,   -0.000060,   -0.000044]
  <i|r^2|0> [a.u.]:                    [  -0.000193,   -0.000671,    0.000046]

  V1^2 = 0.9530, V2^2 = 0.0470

  Important amplitudes:
     core i     occ j      vir a      vir b          v   
    ------------------------------------------------------
     5 (A) A              27 (A) A                 0.5107
     5 (A) B              27 (A) B                -0.5063
    ------------------------------------------------------
  ----------------------------------------------------------------------------


  Excited state  6 (A)                                             [converged]
  ----------------------------------------------------------------------------
  Term symbol:  7 (-) A                                     R^2 =  3.19171e-13

  Total energy:                                           -424.6638798822 a.u.
  Excitation energy:                                             305.861185 eV

  Osc. strength:                                                      0.015856
  Trans. dip. moment [a.u.]:           [  -0.014615,   -0.040383,    0.016481]
  <i|r^2|0> [a.u.]:                    [   0.040942,   -0.424534,    0.000012]

  V1^2 = 0.9203, V2^2 = 0.0797

  Important amplitudes:
     core i     occ j      vir a      vir b          v   
    ------------------------------------------------------
     5 (A) B              23 (A) B                 0.6421
     5 (A) A              23 (A) A                 0.6367
    ------------------------------------------------------
  ----------------------------------------------------------------------------


  Excited state  7 (A)                                             [converged]
  ----------------------------------------------------------------------------
  Term symbol:  8 (-) A                                     R^2 =  2.97801e-13

  Total energy:                                           -424.6618270247 a.u.
  Excitation energy:                                             305.917047 eV

  Osc. strength:                                                      0.000000
  Trans. dip. moment [a.u.]:           [  -0.000081,   -0.000218,    0.000077]
  <i|r^2|0> [a.u.]:                    [   0.000223,   -0.002300,    0.000009]

  V1^2 = 0.9530, V2^2 = 0.0470

  Important amplitudes:
     core i     occ j      vir a      vir b          v   
    ------------------------------------------------------
     5 (A) B              28 (A) B                -0.5116
     5 (A) A              28 (A) A                 0.5116
    ------------------------------------------------------
  ----------------------------------------------------------------------------


  Excited state  8 (A)                                             [converged]
  ----------------------------------------------------------------------------
  Term symbol:  9 (-) A                                     R^2 =  1.30836e-13

  Total energy:                                           -424.5884362610 a.u.
  Excitation energy:                                             307.914111 eV

  Osc. strength:                                                      0.116709
  Trans. dip. moment [a.u.]:           [   0.101204,   -0.055386,   -0.046487]
  <i|r^2|0> [a.u.]:                    [  -0.187664,   -0.617622,    0.045523]

  V1^2 = 0.9437, V2^2 = 0.0563

  Important amplitudes:
     core i     occ j      vir a      vir b          v   
    ------------------------------------------------------
     5 (A) B              24 (A) B                 0.5133
     5 (A) A              24 (A) A                 0.5109
    ------------------------------------------------------
  ----------------------------------------------------------------------------


  Excited state  9 (A)                                             [converged]
  ----------------------------------------------------------------------------
  Term symbol:  10 (-) A                                    R^2 =  1.17822e-13

  Total energy:                                           -424.5831674987 a.u.
  Excitation energy:                                             308.057481 eV

  Osc. strength:                                                      0.115968
  Trans. dip. moment [a.u.]:           [   0.058324,    0.015722,    0.108244]
  <i|r^2|0> [a.u.]:                    [  -0.108367,    0.173873,   -0.089317]

  V1^2 = 0.9434, V2^2 = 0.0566

  Important amplitudes:
     core i     occ j      vir a      vir b          v   
    ------------------------------------------------------
     5 (A) A              25 (A) A                 0.5095
     5 (A) B              25 (A) B                 0.5085
    ------------------------------------------------------
  ----------------------------------------------------------------------------


  Excited state 10 (A)                                             [converged]
  ----------------------------------------------------------------------------
  Term symbol:  11 (-) A                                    R^2 =  4.26370e-13

  Total energy:                                           -424.3883381893 a.u.
  Excitation energy:                                             313.359056 eV

  Osc. strength:                                                      0.000000
  Trans. dip. moment [a.u.]:           [  -0.000004,   -0.000015,    0.000005]
  <i|r^2|0> [a.u.]:                    [   0.000006,   -0.000163,   -0.000005]

  V1^2 = 0.9208, V2^2 = 0.0792

  Important amplitudes:
     core i     occ j      vir a      vir b          v   
    ------------------------------------------------------
     5 (A) B              26 (A) B                 0.5385
     5 (A) A              26 (A) A                -0.5290
    ------------------------------------------------------
  ----------------------------------------------------------------------------


  Excited state 11 (A)                                             [converged]
  ----------------------------------------------------------------------------
  Term symbol:  12 (-) A                                    R^2 =  2.89458e-13

  Total energy:                                           -424.3361936457 a.u.
  Excitation energy:                                             314.777981 eV

  Osc. strength:                                                      0.000190
  Trans. dip. moment [a.u.]:           [   0.004418,   -0.000998,   -0.002041]
  <i|r^2|0> [a.u.]:                    [  -0.007775,   -0.010672,    0.002239]

  V1^2 = 0.8972, V2^2 = 0.1028

  Important amplitudes:
     core i     occ j      vir a      vir b          v   
    ------------------------------------------------------
     5 (A) A              24 (A) A                -0.5219
     5 (A) A              27 (A) A                 0.4865
    ------------------------------------------------------
  ----------------------------------------------------------------------------


  Excited state 12 (A)                                             [converged]
  ----------------------------------------------------------------------------
  Term symbol:  13 (-) A                                    R^2 =  2.23558e-13

  Total energy:                                           -424.3358539441 a.u.
  Excitation energy:                                             314.787225 eV

  Osc. strength:                                                      0.025994
  Trans. dip. moment [a.u.]:           [  -0.021322,   -0.051794,    0.015276]
  <i|r^2|0> [a.u.]:                    [   0.021291,   -0.595446,   -0.030460]

  V1^2 = 0.9175, V2^2 = 0.0825

  Important amplitudes:
     core i     occ j      vir a      vir b          v   
    ------------------------------------------------------
     5 (A) A              26 (A) A                 0.6376
     5 (A) B              26 (A) B                 0.6087
    ------------------------------------------------------
  ----------------------------------------------------------------------------


  Excited state 13 (A)                                             [converged]
  ----------------------------------------------------------------------------
  Term symbol:  14 (-) A                                    R^2 =  2.78893e-13

  Total energy:                                           -424.3353618182 a.u.
  Excitation energy:                                             314.800617 eV

  Osc. strength:                                                      0.000453
  Trans. dip. moment [a.u.]:           [   0.002707,    0.006825,   -0.002212]
  <i|r^2|0> [a.u.]:                    [  -0.002509,    0.078576,    0.004285]

  V1^2 = 0.8978, V2^2 = 0.1022

  Important amplitudes:
     core i     occ j      vir a      vir b          v   
    ------------------------------------------------------
     5 (A) B              25 (A) B                -0.4884
     5 (A) A              25 (A) A                 0.4864
    ------------------------------------------------------
  ----------------------------------------------------------------------------


  Excited state 14 (A)                                             [converged]
  ----------------------------------------------------------------------------
  Term symbol:  15 (-) A                                    R^2 =  4.81783e-13

  Total energy:                                           -424.3206395501 a.u.
  Excitation energy:                                             315.201230 eV

  Osc. strength:                                                      0.031209
  Trans. dip. moment [a.u.]:           [  -0.051824,    0.028295,    0.023560]
  <i|r^2|0> [a.u.]:                    [   0.095767,    0.314562,   -0.021595]

  V1^2 = 0.9009, V2^2 = 0.0991

  Important amplitudes:
     core i     occ j      vir a      vir b          v   
    ------------------------------------------------------
     5 (A) B              27 (A) B                -0.5438
     5 (A) A              27 (A) A                -0.4747
    ------------------------------------------------------
  ----------------------------------------------------------------------------


  Excited state 15 (A)                                             [converged]
  ----------------------------------------------------------------------------
  Term symbol:  16 (-) A                                    R^2 =  4.37726e-13

  Total energy:                                           -424.3194549378 a.u.
  Excitation energy:                                             315.233465 eV

  Osc. strength:                                                      0.032036
  Trans. dip. moment [a.u.]:           [   0.029639,    0.007048,    0.056745]
  <i|r^2|0> [a.u.]:                    [  -0.056639,    0.075899,   -0.048930]

  V1^2 = 0.9014, V2^2 = 0.0986

  Important amplitudes:
     core i     occ j      vir a      vir b          v   
    ------------------------------------------------------
     5 (A) B              28 (A) B                 0.5075
     5 (A) A              28 (A) A                 0.5036
    ------------------------------------------------------
  ----------------------------------------------------------------------------


  Excited state 16 (A)                                             [converged]
  ----------------------------------------------------------------------------
  Term symbol:  17 (-) A                                    R^2 =  8.06385e-13

  Total energy:                                           -424.3084006624 a.u.
  Excitation energy:                                             315.534267 eV

  Osc. strength:                                                      0.000011
  Trans. dip. moment [a.u.]:           [  -0.000310,   -0.001000,    0.000548]
  <i|r^2|0> [a.u.]:                    [   0.002508,   -0.009057,    0.001473]

  V1^2 = 0.9012, V2^2 = 0.0988

  Important amplitudes:
     core i     occ j      vir a      vir b          v   
    ------------------------------------------------------
     5 (A) A              29 (A) A                 0.5402
     5 (A) B              29 (A) B                -0.4489
    ------------------------------------------------------
  ----------------------------------------------------------------------------


  Excited state 17 (A)                                             [converged]
  ----------------------------------------------------------------------------
  Term symbol:  18 (-) A                                    R^2 =  8.31535e-13

  Total energy:                                           -424.2730110757 a.u.
  Excitation energy:                                             316.497267 eV

  Osc. strength:                                                      0.012283
  Trans. dip. moment [a.u.]:           [   0.012531,    0.035030,   -0.014140]
  <i|r^2|0> [a.u.]:                    [  -0.041273,    0.370695,   -0.006436]

  V1^2 = 0.9055, V2^2 = 0.0945

  Important amplitudes:
     core i     occ j      vir a      vir b          v   
    ------------------------------------------------------
     5 (A) B              29 (A) B                -0.6483
     5 (A) A              29 (A) A                -0.5681
    ------------------------------------------------------
  ----------------------------------------------------------------------------


  Excited state 18 (A)                                         [not converged]
  ----------------------------------------------------------------------------
  Term symbol:  19 (-) A                                    R^2 =  2.51231e-06

  Total energy:                                           -423.6836699481 a.u.
  Excitation energy:                                             332.534054 eV


  V1^2 = 0.8714, V2^2 = 0.1286

  Important amplitudes:
     core i     occ j      vir a      vir b          v   
    ------------------------------------------------------
     5 (A) B              31 (A) B                -0.6376
     5 (A) A              32 (A) A                 0.6233
    ------------------------------------------------------
  ----------------------------------------------------------------------------


  Excited state 19 (A)                                         [not converged]
  ----------------------------------------------------------------------------
  Term symbol:  20 (-) A                                    R^2 =  2.92418e-05

  Total energy:                                           -423.6818490742 a.u.
  Excitation energy:                                             332.583603 eV


  V1^2 = 0.8709, V2^2 = 0.1291

  Important amplitudes:
     core i     occ j      vir a      vir b          v   
    ------------------------------------------------------
     5 (A) B              32 (A) B                -0.6389
     5 (A) A              31 (A) A                -0.6259
    ------------------------------------------------------
  ----------------------------------------------------------------------------


  Excited state 20 (A)                                         [not converged]
  ----------------------------------------------------------------------------
  Term symbol:  21 (-) A                                    R^2 =  3.76165e-05

  Total energy:                                           -423.6770555521 a.u.
  Excitation energy:                                             332.714041 eV


  V1^2 = 0.8700, V2^2 = 0.1300

  Important amplitudes:
     core i     occ j      vir a      vir b          v   
    ------------------------------------------------------
     5 (A) B              31 (A) B                 0.6305
     5 (A) A              32 (A) A                 0.6088
    ------------------------------------------------------
  ----------------------------------------------------------------------------


--------------------------------------------------------------------------------
  Time of ADC calculation:  CPU 1198.45 s  wall 1235.81 s
================================================================================
 
 --------------------------------------------------------------
 
                    Orbital Energies (a.u.)
 --------------------------------------------------------------
 
 Alpha MOs
 -- Occupied --
-26.745 -26.742 -26.742 -26.612 -11.947  -2.181  -2.069  -2.066
 -1.864  -1.325  -1.245  -1.245  -1.195  -1.074  -1.074  -1.045
 -1.044  -1.027  -1.019  -0.925  -0.922
 -- Virtual --
 -0.219   0.077   0.198   0.201   0.359   0.417   0.422   0.448
  0.956   1.011   1.011   1.018   1.070   1.089   1.181   1.217
  1.271   1.287   1.288   1.311   1.318   1.327   1.387   1.505
  1.652   1.653   1.745   1.748   1.785   1.811   1.830   1.846
  1.859   1.877   1.929   1.963   1.985   1.998   1.999   2.096
  2.370   2.583   2.671   2.678   3.004   3.010   3.224   3.227
  3.296   3.669   4.300   4.741   4.756   5.607
 
 Beta MOs
 -- Occupied --
-26.745 -26.742 -26.742 -26.564 -11.947  -2.181  -2.069  -2.066
 -1.671  -1.325  -1.245  -1.245  -1.195  -1.074  -1.073  -1.044
 -1.042  -1.019  -0.872  -0.870
 -- Virtual --
 -0.219  -0.112   0.078   0.200   0.201   0.361   0.418   0.423
  0.451   0.973   1.011   1.012   1.032   1.093   1.102   1.228
  1.255   1.279   1.287   1.288   1.311   1.337   1.391   1.429
  1.515   1.654   1.655   1.749   1.751   1.785   1.847   1.857
  1.859   1.946   1.947   1.968   1.977   1.986   1.999   2.006
  2.096   2.373   2.591   2.672   2.678   3.004   3.010   3.224
  3.227   3.300   3.705   4.300   4.741   4.756   5.610
 --------------------------------------------------------------
 
          Ground-State Mulliken Net Atomic Charges

     Atom                 Charge (a.u.)    Spin (a.u.)
  --------------------------------------------------------
      1 C                     1.220581      -0.005219
      2 F                    -0.084275       0.000404
      3 F                    -0.084301       0.000392
      4 F                     0.023445       1.004277
      5 F                    -0.075449       0.000145
  --------------------------------------------------------
  Sum of atomic charges =     1.000000
  Sum of spin   charges =     1.000000

 -----------------------------------------------------------------
                    Cartesian Multipole Moments
 -----------------------------------------------------------------
    Charge (ESU x 10^10)
                 4.8032
    Dipole Moment (Debye)
         X      -2.3528      Y      14.0247      Z      -1.0625
       Tot      14.2603
    Quadrupole Moments (Debye-Ang)
        XX     -19.1955     XY      -6.6122     YY      21.4699
        XZ       0.0830     YZ      -3.5240     ZZ     -20.5565
    Octopole Moments (Debye-Ang^2)
       XXX      41.5400    XXY     -45.7070    XYY      -4.2691
       YYY     -18.7946    XXZ       1.1607    XYZ       0.6738
       YYZ     -11.1823    XZZ      13.3147    YZZ     -48.1401
       ZZZ      -0.0413
    Hexadecapole Moments (Debye-Ang^3)
      XXXX    -129.4179   XXXY      89.4741   XXYY    -152.0901
      XYYY      37.8617   YYYY    -427.5202   XXXZ       1.4240
      XXYZ       5.8154   XYYZ       3.6239   YYYZ     -22.9016
      XXZZ     -32.6715   XYZZ      27.9594   YYZZ    -146.5130
      XZZZ       4.3627   YZZZ      12.9500   ZZZZ     -75.6040
 -----------------------------------------------------------------
Archival summary:
1\1\tp-linux1\SP\HF\6-31G*\41(1+,2)\thomas\WedMar2211:06:492017WedMar2211:06:492017\0\\#,HF,6-31G*,\\1,2\C\F,1,1.20404\F,1,1.20926,2,118.318\F,1,1.20936,2,118.317,3,153.525,0\F,1,2.63056,2,84.3381,3,76.6714,0\\HF=-435.164222\\@

 Total job time:  1258.19s(wall), 1213.89s(cpu) 
 Wed Mar 22 11:06:49 2017

        *************************************************************
        *                                                           *
        *  Thank you very much for using Q-Chem.  Have a nice day.  *
        *                                                           *
        *************************************************************


0 sent ACK to 0 
now end server 0 ... 
cleanup process ... done
