
Running Job 1 of 1 ddtraj1t31.inp
qchem ddtraj1t31.inp_11718.0 /scratch/qchem/qchem11718/ 1
/mnt/software/qchem/bin/mpi/mpirun_qchem -machinefile /mnt/software/qchem/bin/mpi/machines -np 1 /mnt/software/qchem/exe/qcprog.exe ddtraj1t31.inp_11718.0 /scratch/qchem/qchem11718/

Process 0 of 1 is on tp-linux1 - thread support 0
initial socket setup ...start
initial socket setup ...done 
now start server 0 ... 

cmd = ssh tp-linux1 /mnt/software/qchem/bin/get_hostid 1685556144 > /scratch/qchem/qchem11718/lic.dat
                  Welcome to Q-Chem
     A Quantum Leap Into The Future Of Chemistry


 Q-Chem 4.3, Q-Chem, Inc., Pleasanton, CA (2015)

 Y. Shao,  Z. Gan,  E. Epifanovsky,  A. T. B. Gilbert,  M. Wormit,  
 J. Kussmann,  A. W. Lange,  A. Behn,  J. Deng,  X. Feng,  D. Ghosh,  
 M. Goldey,  P. R. Horn,  L. D. Jacobson,  I. Kaliman,  R. Z. Khaliullin,  
 T. Kus,  A. Landau,  J. Liu,  E. I. Proynov,  Y. M. Rhee,  R. M. Richard,  
 M. A. Rohrdanz,  R. P. Steele,  E. J. Sundstrom,  H. L. Woodcock III,  
 P. M. Zimmerman,  D. Zuev,  B. Albrecht,  E. Alguire,  B. Austin,  
 S. A. Baeppler,  G. J. O. Beran,  Y. A. Bernard,  E. Berquist,  
 K. Brandhorst,  K. B. Bravaya,  S. T. Brown,  D. Casanova,  C.-M. Chang,  
 Y. Chen,  S. H. Chien,  K. D. Closser,  D. L. Crittenden,  M. Diedenhofen,  
 R. A. DiStasio Jr.,  H. Do,  A. D. Dutoi,  R. G. Edgar,  P.-T. Fang,  
 S. Fatehi,  Q. Feng,  L. Fusti-Molnar,  A. Ghysels,  
 A. Golubeva-Zadorozhnaya,  J. Gomes,  A. Gunina,  M. W. D. Hanson-Heine,  
 P. H. P. Harbach,  A. W. Hauser,  E. G. Hohenstein,  Z. C. Holden,  K. Hui,  
 T.-C. Jagau,  H. Ji,  B. Kaduk,  K. Khistyaev,  Jaehoon Kim,  Jihan Kim,  
 R. A. King,  P. Klunzinger,  D. Kosenkov,  T. Kowalczyk,  C. M. Krauter,  
 K. U. Lao,  A. Laurent,  K. V. Lawler,  S. Lehtola,  S. V. Levchenko,  
 C. Y. Lin,  Y.-S. Lin,  F. Liu,  E. Livshits,  R. C. Lochan,  A. Luenser,  
 P. Manohar,  S. F. Manzer,  S.-P. Mao,  N. Mardirossian,  A. V. Marenich,  
 L. A. Martinez-Martinez,  S. A. Maurer,  N. J. Mayhall,  K. Nanda,  
 C. M. Oana,  R. Olivares-Amaya,  D. P. O'Neill,  J. A. Parkhill,  
 T. M. Perrine,  R. Peverati,  P. A. Pieniazek,  F. Plasser,  A. Prociuk,  
 D. R. Rehn,  E. Rosta,  N. J. Russ,  N. Sergueev,  S. M. Sharada,  
 S. Sharma,  D. W. Small,  A. Sodt,  T. Stauch,  T. Stein,  D. Stuck,  
 Y.-C. Su,  A. J. W. Thom,  T. Tsuchimochi,  L. Vogt,  O. Vydrov,  T. Wang,  
 M. A. Watson,  J. Wenzel,  A. White,  C. F. Williams,  V. Vanovschi,  
 S. Yeganeh,  S. R. Yost,  Z.-Q. You,  I. Y. Zhang,  X. Zhang,  Y. Zhao,  
 B. R. Brooks,  G. K. L. Chan,  D. M. Chipman,  C. J. Cramer,  
 W. A. Goddard III,  M. S. Gordon,  W. J. Hehre,  A. Klamt,  
 H. F. Schaefer III,  M. W. Schmidt,  C. D. Sherrill,  D. G. Truhlar,  
 A. Warshel,  X. Xu,  A. Aspuru-Guzik,  R. Baer,  A. T. Bell,  N. A. Besley,  
 J.-D. Chai,  A. Dreuw,  B. D. Dunietz,  T. R. Furlani,  S. R. Gwaltney,  
 C.-P. Hsu,  Y. Jung,  J. Kong,  D. S. Lambrecht,  W. Liang,  C. Ochsenfeld,  
 V. A. Rassolov,  L. V. Slipchenko,  J. E. Subotnik,  T. Van Voorhis,  
 J. M. Herbert,  A. I. Krylov,  P. M. W. Gill,  M. Head-Gordon

 Contributors to earlier versions of Q-Chem not listed above: 
 R. D. Adamson,  J. Baker,  E. F. C. Byrd,  A. K. Chakraborty,  C.-L. Cheng,  
 H. Dachsel,  R. J. Doerksen,  G. Hawkins,  A. Heyden,  S. Hirata,  
 G. Kedziora,  F. J. Keil,  C. Kelley,  P. P. Korambath,  W. Kurlancheek,  
 A. M. Lee,  M. S. Lee,  D. Liotard,  I. Lotan,  P. E. Maslen,  N. Nair,  
 D. Neuhauser,  R. Olson,  B. Peters,  J. Ritchie,  N. E. Schultz,  
 N. Shenvi,  A. C. Simmonett,  K. S. Thanthiriwatte,  Q. Wu,  W. Zhang

 Please cite Q-Chem as follows:
 Y. Shao et al., Mol. Phys. 113, 184-215 (2015)
 DOI: 10.1080/00268976.2014.952696

 Q-Chem 4.3.0 for Intel X86 Linux

 Parts of Q-Chem use Armadillo 5.200.1 (Boston Tea Smuggler).
 http://arma.sourceforge.net/

 Q-Chem begins on Wed Mar 22 12:39:25 2017  

Host: 
0

     Scratch files written to /scratch/qchem/qchem11718//
 Nov1815 1189b_ 19540  19532 5443   
 Parallel job on  1  processors
Processing $rem in /mnt/software/qchem/config/preferences.
 MEM_TOTAL  2000 

Checking the input file for inconsistencies... 	...done.

--------------------------------------------------------------
User input:
--------------------------------------------------------------
$comment
XAS calculation for valence excited states for CF4+ using cvs-adc(2) + 6-31G* basis set
job 1 - determination of HF orbitals
$end

$molecule
1 2
6  -0.535308  2.801184  -0.177956
9  0.618032  2.493968  -0.062806
9  -1.071806  3.414405  0.701591
9  -1.391091  0.465537  0.728608
9  -1.056093  2.739592  -1.254991
$end

$comment
cvs-adc(2) calculation
$end

$rem
mem_total 3000
mem_static 1500
sym_ignore true
method cvs-adc(2)
basis 6-31G*
ee_singlets 20
cc_rest_occ 5                  !only excitations from the lowest N orbitals
unrestricted  true
max_scf_cycles 200
SCF_ALGORITHM = DIIS_GDM
SCF_CONVERGENCE = 7
THRESH = 10
$end
--------------------------------------------------------------
 ----------------------------------------------------------------
             Standard Nuclear Orientation (Angstroms)
    I     Atom           X                Y                Z
 ----------------------------------------------------------------
    1      C      -0.5353080000     2.8011840000    -0.1779560000
    2      F       0.6180320000     2.4939680000    -0.0628060000
    3      F      -1.0718060000     3.4144050000     0.7015910000
    4      F      -1.3910910000     0.4655370000     0.7286080000
    5      F      -1.0560930000     2.7395920000    -1.2549910000
 ----------------------------------------------------------------
 Nuclear Repulsion Energy =   187.4678087491 hartrees
 There are       21 alpha and       20 beta electrons
 Requested basis set is 6-31G(d)
 There are 20 shells and 75 basis functions

 Total QAlloc Memory Limit   3000 MB
 Mega-Array Size      1467 MB
 MEM_STATIC part      1500 MB

                       Distance Matrix (Angstroms)
             C (  1)   F (  2)   F (  3)   F (  4)
   F (  2)  1.199097
   F (  3)  1.198947  2.070522
   F (  4)  2.647540  2.962675  2.966226
   F (  5)  1.197921  2.069862  2.069742  3.036151
 
 tim1(1): 
  0.000000000000000E+000
 tim1(2): 
  0.000000000000000E+000
 A cutoff of  1.0D-10 yielded    194 shell pairs
 There are      2938 function pairs
 
 -------------------------------------------------------
 OpenMP Integral Computing Module                       
 Release: version 1.0, May 2013, Q-Chem Inc. Pittsburgh 
 -------------------------------------------------------
 Integral Job Info:
 Integral job number is                      11
 Integral operator is                         1
 short-range coefficients                     0
 long-range coefficients              100000000
 Omega coefficients                           0
 if combine SR and LR in K                    0
 Integral screening is                        0
 Integral computing path is                   2
 max size of driver memory is            800000
 size of driver memory is                593474
 size of scratch memory is              2260544
 max col of scratch BK array               1296
 max len of scratch array in speh3          155
 max len of scratch index in speh4           18
 max int batch size is                      520
 min int batch size is                       52
 fixed nKL is                                52
 max L of basis functions is                  2
 order of int derivative is                   0
 number of shells is                         20
 number of basis is                          75
 number of cartesian basis is                75
 number of contracted shell pairs           194
 number of primitive shell pairs            971
 maxK2 (contraction) of shell pair           36
 max number of K2 of shell pair               1
 max number of CS2 of shell pair             32
 max number of PS2 of shell pair            192
 mem total for path MDJ                   20584
 -------------------------------------------------------
 Smallest overlap matrix eigenvalue = 3.34E-03

 Scale SEOQF with 1.000000e+00/1.000000e-01/1.000000e+00

 Standard Electronic Orientation quadrupole field applied
 Nucleus-field energy     =     0.0000000099 hartrees
 Guess from superposition of atomic densities
 Warning:  Energy on first SCF cycle will be non-variational
 An unrestricted Hartree-Fock SCF calculation will be
 performed using Pulay DIIS + Geometric Direct Minimization
 SCF converges when RMS gradient is below 1.0E-07
 ---------------------------------------
  Cycle       Energy         DIIS Error
 ---------------------------------------
    1    -436.5876989657      9.67E-02
    2    -434.9982359317      1.76E-02
    3    -435.1469026521      7.77E-03 Done DIIS. Switching to GDM
    4    -435.1743794095      8.92E-03 Normal BFGS step
    5    -435.1752820203      8.04E-03 Normal BFGS step
    6    -435.1755755507      2.76E-03 Normal BFGS step
    7    -435.1756046503      2.76E-03 Normal BFGS step
    8    -435.1756218397      2.74E-03 Normal BFGS step
    9    -435.1756500400      2.64E-03 Normal BFGS step
   10    -435.1757031760      2.33E-03 Normal BFGS step
   11    -435.1757898614      2.32E-03 Normal BFGS step
   12    -435.1758796608      2.07E-03 Normal BFGS step
   13    -435.1759245854      8.82E-04 Normal BFGS step
   14    -435.1759325133      1.59E-04 Normal BFGS step
   15    -435.1759330027      6.72E-05 Normal BFGS step
   16    -435.1759330418      2.71E-05 Normal BFGS step
   17    -435.1759330457      1.74E-05 Normal BFGS step
   18    -435.1759330470      1.74E-05 Normal BFGS step
   19    -435.1759330480      1.74E-05 Normal BFGS step
   20    -435.1759330488      1.74E-05 Normal BFGS step
   21    -435.1759330510      1.74E-05 Normal BFGS step
   22    -435.1759330555      2.81E-05 Normal BFGS step
   23    -435.1759330672      5.22E-05 Normal BFGS step
   24    -435.1759330967      9.08E-05 Normal BFGS step
   25    -435.1759331742      1.55E-04 Normal BFGS step
   26    -435.1759333800      2.63E-04 Normal BFGS step
   27    -435.1759338349      4.44E-04 Normal BFGS step
   28    -435.1759344129      5.82E-04 Normal BFGS step
   29    -435.1759358401      1.22E-03 Normal BFGS step
   30    -435.1759380509      1.98E-04 Normal BFGS step
   31    -435.1759388097      5.50E-04 Normal BFGS step
   32    -435.1759396189      8.33E-04 Normal BFGS step
   33    -435.1759411692      5.93E-04 Normal BFGS step
   34    -435.1759427281      8.49E-04 Normal BFGS step
   35    -435.1759450153      4.58E-04 Normal BFGS step
   36    -435.1759393283      9.60E-03 Line search: overstep
   37    -435.1759454671      4.55E-04 Normal BFGS step
   38    -435.1759468266      9.88E-04 Normal BFGS step
   39    -435.1759478792      2.07E-04 Normal BFGS step
   40    -435.1759488545      3.06E-04 Normal BFGS step
   41    -435.1759462851      7.71E-03 Line search: overstep
   42    -435.1759497716      5.36E-04 Normal BFGS step
   43    -435.1759509612      9.33E-04 Normal BFGS step
   44    -435.1759517144      3.25E-04 Normal BFGS step
   45    -435.1759529839      2.93E-04 Normal BFGS step
   46    -435.1759501368      7.09E-03 Line search: overstep
   47    -435.1759535674      5.14E-04 Normal BFGS step
   48    -435.1759545440      5.59E-04 Normal BFGS step
   49    -435.1759551946      2.42E-04 Normal BFGS step
   50    -435.1759560291      8.15E-04 Normal BFGS step
   51    -435.1759565755      1.04E-04 Normal BFGS step
   52    -435.1759569732      1.13E-04 Normal BFGS step
   53    -435.1759564280      3.61E-03 Line search: overstep
   54    -435.1759572430      2.93E-04 Normal BFGS step
   55    -435.1759574566      3.52E-04 Normal BFGS step
   56    -435.1759576376      1.16E-04 Normal BFGS step
   57    -435.1759577251      1.30E-04 Normal BFGS step
   58    -435.1759577651      8.22E-05 Normal BFGS step
   59    -435.1759577927      8.92E-05 Normal BFGS step
   60    -435.1759578417      9.25E-05 Normal BFGS step
   61    -435.1759579464      9.29E-05 Normal BFGS step
   62    -435.1759581438      7.85E-05 Normal BFGS step
   63    -435.1759582803      1.58E-04 Normal BFGS step
   64    -435.1759581542      1.34E-03 Line search: overstep
   65    -435.1759584066      8.02E-05 Normal BFGS step
   66    -435.1759584522      4.41E-05 Normal BFGS step
   67    -435.1759584657      1.76E-05 Normal BFGS step
   68    -435.1759584672      1.09E-05 Normal BFGS step
   69    -435.1759584682      9.16E-06 Normal BFGS step
   70    -435.1759584688      7.20E-06 Normal BFGS step
   71    -435.1759584695      4.61E-06 Normal BFGS step
   72    -435.1759584699      3.72E-06 Normal BFGS step
   73    -435.1759584701      1.58E-06 Normal BFGS step
   74    -435.1759584701      1.17E-06 Normal BFGS step
   75    -435.1759584701      2.51E-07 Normal BFGS step
   76    -435.1759584701      1.14E-07 Normal BFGS step
   77    -435.1759584701      3.10E-08 Convergence criterion met
 ---------------------------------------
 <S^2> = 0.7531
 SCF time:  CPU 9.98 s  wall 14.38 s
 SCF   energy in the final basis set = -435.1759584701
 Total energy in the final basis set = -435.1759584701
================================================================================
|                                                                              |
|                                 A D C  M A N                                 |
|                                                                              |
 ------------------------------------------------------------------------------ 
|                                                                              |
| Components:                                                                  |
|                                                                              |
| - libvmm - 1.2-release                                                       |
|   Authors:                                                                   |
|   Evgeny Epifanovsky, Ilya Kaliman                                           |
|                                                                              |
| - libtensor - 2.4-trunk                                                      |
|   Authors:                                                                   |
|   Evgeny Epifanovsky, Michael Wormit, Dmitry Zuev, Sam Manzer                |
|                                                                              |
| - libwfa - 1.1-beta                                                          |
|   Authors:                                                                   |
|   Felix Plasser, Stefanie Baeppler, Benjamin Thomitzni, Michael Wormit       |
|                                                                              |
| - libadc - 1.0-beta                                                          |
|   Authors:                                                                   |
|   Michael Wormit, Philipp H. P. Harbach, Caroline Krauter, Dirk Rehn,        |
|   Matthias Schneider, Jan Wenzel                                             |
|                                                                              |
| - adcman - 2.4-beta                                                          |
|   Authors:                                                                   |
|   Michael Wormit, Philipp H. P. Harbach, Caroline Krauter, Dirk Rehn,        |
|   Jan Wenzel, Andreas Dreuw                                                  |
|                                                                              |
| Authors of earlier versions of ADCMAN:                                       |
| Andreas Dreuw, Jan Hendrik Starcke, Dirk Rehn, Michael Wormit                |
|                                                                              |
================================================================================

 
 Alpha MOs, Unrestricted
 -- Occupied --                  
-26.744 -26.744 -26.744 -26.624 -11.943  -2.187  -2.074  -2.074
  1 A     2 A     3 A     4 A     5 A     6 A     7 A     8 A                  
 -1.874  -1.326  -1.250  -1.250  -1.200  -1.076  -1.076  -1.049
  9 A    10 A    11 A    12 A    13 A    14 A    15 A    16 A                  
 -1.047  -1.038  -1.020  -0.935  -0.932
 17 A    18 A    19 A    20 A    21 A                                          
 -- Virtual --                   
 -0.177   0.028   0.217   0.219   0.362   0.430   0.432   0.446
 22 A    23 A    24 A    25 A    26 A    27 A    28 A    29 A                  
  0.946   1.010   1.012   1.012   1.096   1.116   1.193   1.233
 30 A    31 A    32 A    33 A    34 A    35 A    36 A    37 A                  
  1.251   1.272   1.276   1.291   1.291   1.310   1.396   1.524
 38 A    39 A    40 A    41 A    42 A    43 A    44 A    45 A                  
  1.646   1.647   1.751   1.753   1.786   1.793   1.804   1.823
 46 A    47 A    48 A    49 A    50 A    51 A    52 A    53 A                  
  1.849   1.864   1.987   1.988   2.002   2.028   2.068   2.093
 54 A    55 A    56 A    57 A    58 A    59 A    60 A    61 A                  
  2.188   2.453   2.710   2.711   3.052   3.054   3.266   3.266
 62 A    63 A    64 A    65 A    66 A    67 A    68 A    69 A                  
  3.287   3.640   4.296   4.939   4.940   4.979
 70 A    71 A    72 A    73 A    74 A    75 A                                  
 
 Beta MOs, Unrestricted
 -- Occupied --                  
-26.744 -26.744 -26.744 -26.576 -11.943  -2.187  -2.074  -2.074
  1 A     2 A     3 A     4 A     5 A     6 A     7 A     8 A                  
 -1.680  -1.326  -1.250  -1.250  -1.200  -1.076  -1.076  -1.047
  9 A    10 A    11 A    12 A    13 A    14 A    15 A    16 A                  
 -1.047  -1.020  -0.881  -0.879
 17 A    18 A    19 A    20 A                                                  
 -- Virtual --                   
 -0.176  -0.122   0.029   0.219   0.221   0.365   0.432   0.432
 21 A    22 A    23 A    24 A    25 A    26 A    27 A    28 A                  
  0.447   0.966   1.012   1.012   1.019   1.119   1.125   1.249
 29 A    30 A    31 A    32 A    33 A    34 A    35 A    36 A                  
  1.263   1.266   1.281   1.288   1.293   1.310   1.388   1.397
 37 A    38 A    39 A    40 A    41 A    42 A    43 A    44 A                  
  1.534   1.647   1.649   1.753   1.753   1.786   1.827   1.841
 45 A    46 A    47 A    48 A    49 A    50 A    51 A    52 A                  
  1.845   1.937   1.939   1.988   1.988   2.032   2.039   2.071
 53 A    54 A    55 A    56 A    57 A    58 A    59 A    60 A                  
  2.093   2.195   2.459   2.710   2.711   3.052   3.054   3.266
 61 A    62 A    63 A    64 A    65 A    66 A    67 A    68 A                  
  3.267   3.289   3.677   4.298   4.939   4.941   4.980
 69 A    70 A    71 A    72 A    73 A    74 A    75 A                          
 

--------------------------------------------------------------------------------
                                   HF Summary                                   
--------------------------------------------------------------------------------
  Energy:                                                 -435.1759584701 a.u.
  Dip. moment [a.u.]:                  [ -54.323206,  181.657859,    0.159920]
  Total dipole [Debye]:                                             481.931672
  <r^2> [a.u.]:                        [ 167.278082,  979.207946,   99.649859]
  Total <r^2> [a.u.]:                                              1246.135888
--------------------------------------------------------------------------------

--------------------------------------------------------------------------------
                                 MP(2) Summary                                  
--------------------------------------------------------------------------------
  Energy contribution:                                      -0.7364820853 a.u.
  Total energy:                                           -435.9124405554 a.u.
  Dip. moment [a.u.]:                  [ -54.334163,  181.630940,    0.168243]
  Total dipole [Debye]:                                             481.874118
  <r^2> [a.u.]:                        [ 167.096628,  978.983726,   99.426349]
  Total <r^2> [a.u.]:                                              1245.506702
--------------------------------------------------------------------------------
  Starting Davidson ... 
--------------------------------------------------------------------------------
   It NVec Conv  Avg. Norm  Max. Norm  Conv. states           Remark
--------------------------------------------------------------------------------
        20    0  2.104e-01  1.142e+00 10.9853 n n n n n n n n Guess.
    1   40    0  3.364e-02  4.775e-01 10.8243 n n n n n n n n 
    2   60    0  7.048e-03  6.959e-02 10.8229 n n n n n n n n 
    3   80    0  2.124e-03  2.507e-02 10.8228 n n n n n n n n 
    4  100    0  1.110e-03  1.440e-02 10.8228 n n n n n n n n 
    5   40    0  6.405e-04  9.512e-03 10.8228 n n n n n n n n Subspace collapsed.
    6   60    0  1.119e-03  2.096e-02 10.8228 n n n n n n n n 
    7   80    0  1.164e-03  2.249e-02 10.8228 n n n n n n n n 
    8  100    3  1.484e-03  2.937e-02 10.8228 y y n y n n n n 
    9   40    8  9.362e-04  1.854e-02 10.8228 y y n y y y y y Subspace collapsed.
   10   60    8  8.780e-04  1.744e-02 10.8228 y y n y y y y y 
   11   80    9  7.398e-04  1.476e-02 10.8228 y y y y y y y y 
   12  100   14  9.730e-04  1.942e-02 10.8228 y y y y y y y y 
   13   40   16  5.231e-04  1.044e-02 10.8228 y y y y y y y y Subspace collapsed.
   14   60   16  6.624e-04  1.322e-02 10.8228 y y y y y y y y 
   15   80   17  9.105e-04  1.820e-02 10.8228 y y y y y y y y 
   16  100   17  1.091e-03  2.182e-02 10.8228 y y y y y y y y 
   17   38   17  8.085e-04  1.616e-02 10.8228 y y y y y y y y Subspace collapsed.
   18   39   17  8.091e-04  1.618e-02 10.8228 y y y y y y y y 
   19   40   17  8.117e-04  1.623e-02 10.8228 y y y y y y y y 
   20   57   17  6.298e-04  1.259e-02 10.8228 y y y y y y y y 
   21   58   17  6.299e-04  1.259e-02 10.8228 y y y y y y y y 
   22   59   17  6.304e-04  1.260e-02 10.8228 y y y y y y y y 
   23   74   17  4.812e-04  9.621e-03 10.8228 y y y y y y y y 
   24   74   17  4.812e-04  9.621e-03 10.8228 y y y y y y y y 
   25   94   17  4.991e-04  9.975e-03 10.8228 y y y y y y y y 
   26  100   17  5.005e-04  1.000e-02 10.8228 y y y y y y y y 
   27   31   17  4.080e-04  8.156e-03 10.8228 y y y y y y y y Subspace collapsed.
   28   42   17  4.532e-04  9.061e-03 10.8228 y y y y y y y y 
   29   53   17  5.886e-04  1.177e-02 10.8228 y y y y y y y y 
   30   64   17  6.928e-04  1.385e-02 10.8228 y y y y y y y y 
   31   67   17  6.939e-04  1.387e-02 10.8228 y y y y y y y y 
   32   69   17  6.972e-04  1.394e-02 10.8228 y y y y y y y y 
   33   70   17  6.956e-04  1.391e-02 10.8228 y y y y y y y y 
   34   70   17  6.956e-04  1.391e-02 10.8228 y y y y y y y y 
   35   70   17  6.956e-04  1.391e-02 10.8228 y y y y y y y y 
   36   90   17  1.041e-03  2.081e-02 10.8228 y y y y y y y y 
   37   95   17  6.156e-04  1.155e-02 10.8228 y y y y y y y y 
   38   99   17  4.075e-04  7.288e-03 10.8228 y y y y y y y y 
   39  100   17  4.172e-04  7.451e-03 10.8228 y y y y y y y y 
   40   23   17  2.185e-04  3.896e-03 10.8228 y y y y y y y y Subspace collapsed.
   41   26   17  1.452e-04  2.617e-03 10.8228 y y y y y y y y 
   42   29   17  8.806e-05  1.579e-03 10.8228 y y y y y y y y 
   43   32   17  6.589e-05  1.191e-03 10.8228 y y y y y y y y 
   44   35   17  6.461e-05  1.168e-03 10.8228 y y y y y y y y 
   45   38   17  5.249e-05  9.082e-04 10.8228 y y y y y y y y 
   46   38   17  5.249e-05  9.082e-04 10.8228 y y y y y y y y 
   47   38   17  5.249e-05  9.082e-04 10.8228 y y y y y y y y 
   48   58   17  3.191e-05  5.101e-04 10.8228 y y y y y y y y 
   49   62   17  2.893e-05  4.321e-04 10.8228 y y y y y y y y 
   50   65   17  2.380e-05  3.766e-04 10.8228 y y y y y y y y 
   51   68   17  3.226e-05  4.799e-04 10.8228 y y y y y y y y 
   52   71   17  3.927e-05  5.953e-04 10.8228 y y y y y y y y 
   53   74   17  6.017e-05  1.000e-03 10.8228 y y y y y y y y 
   54   77   17  1.144e-04  2.224e-03 10.8228 y y y y y y y y 
   55   80   17  3.506e-04  7.006e-03 10.8228 y y y y y y y y 
   56   83   17  6.221e-04  1.244e-02 10.8228 y y y y y y y y 
   57   86   17  2.612e-04  5.223e-03 10.8228 y y y y y y y y 
   58   89   17  1.242e-04  2.483e-03 10.8228 y y y y y y y y 
   59   92   18  5.601e-05  1.120e-03 10.8228 y y y y y y y y 
--------------------------------------------------------------------------------
  Davidson Summary: 
 ------------------------------------------------------------
  State  0: excitation energy =  10.8228 a.u.   (converged)
  State  1: excitation energy =  10.8943 a.u.   (converged)
  State  2: excitation energy =  11.1654 a.u.   (converged)
  State  3: excitation energy =  11.1937 a.u.   (converged)
  State  4: excitation energy =  11.2189 a.u.   (converged)
  State  5: excitation energy =  11.2577 a.u.   (converged)
  State  6: excitation energy =  11.2586 a.u.   (converged)
  State  7: excitation energy =  11.3383 a.u.   (converged)
  State  8: excitation energy =  11.3391 a.u.   (converged)
  State  9: excitation energy =  11.5276 a.u.   (converged)
  State 10: excitation energy =  11.5635 a.u.   (converged)
  State 11: excitation energy =  11.5709 a.u.   (converged)
  State 12: excitation energy =  11.5717 a.u.   (converged)
  State 13: excitation energy =  11.5736 a.u.   (converged)
  State 14: excitation energy =  11.5862 a.u.   (converged)
  State 15: excitation energy =  11.5868 a.u.   (converged)
  State 16: excitation energy =  11.6136 a.u.   (converged)
  State 17: excitation energy =  12.2194 a.u.   (not converged)
  State 18: excitation energy =  12.2195 a.u.   (converged)
  State 19: excitation energy =  12.2263 a.u.   (not converged)
 ------------------------------------------------------------


--------------------------------------------------------------------------------
                             Excited State Summary
--------------------------------------------------------------------------------

  Excited state  1 (A)                                             [converged]
  ----------------------------------------------------------------------------
  Term symbol:  2 (-) A                                     R^2 =  2.93536e-14

  Total energy:                                           -425.0896183260 a.u.
  Excitation energy:                                             294.503971 eV

  Osc. strength:                                                      0.000000
  Trans. dip. moment [a.u.]:           [   0.000048,    0.000122,   -0.000041]
  <i|r^2|0> [a.u.]:                    [  -0.000098,    0.001279,    0.000027]

  V1^2 = 0.9590, V2^2 = 0.0410

  Important amplitudes:
     core i     occ j      vir a      vir b          v   
    ------------------------------------------------------
     5 (A) A              22 (A) A                 0.6587
     5 (A) B              21 (A) B                -0.6572
    ------------------------------------------------------
  ----------------------------------------------------------------------------


  Excited state  2 (A)                                             [converged]
  ----------------------------------------------------------------------------
  Term symbol:  3 (-) A                                     R^2 =  3.43042e-14

  Total energy:                                           -425.0180998617 a.u.
  Excitation energy:                                             296.450087 eV

  Osc. strength:                                                      0.109642
  Trans. dip. moment [a.u.]:           [   0.042543,    0.109070,   -0.037283]
  <i|r^2|0> [a.u.]:                    [  -0.089543,    1.149384,    0.021677]

  V1^2 = 0.9546, V2^2 = 0.0454

  Important amplitudes:
     core i     occ j      vir a      vir b          v   
    ------------------------------------------------------
     5 (A) B              21 (A) B                 0.6692
     5 (A) A              22 (A) A                 0.6670
    ------------------------------------------------------
  ----------------------------------------------------------------------------


  Excited state  3 (A)                                             [converged]
  ----------------------------------------------------------------------------
  Term symbol:  4 (-) A                                     R^2 =  9.17835e-14

  Total energy:                                           -424.7470421207 a.u.
  Excitation energy:                                             303.825943 eV

  Osc. strength:                                                      0.000001
  Trans. dip. moment [a.u.]:           [   0.000091,    0.000231,   -0.000077]
  <i|r^2|0> [a.u.]:                    [  -0.000139,    0.002553,    0.000096]

  V1^2 = 0.9292, V2^2 = 0.0708

  Important amplitudes:
     core i     occ j      vir a      vir b          v   
    ------------------------------------------------------
     5 (A) A              23 (A) A                 0.6146
     5 (A) B              23 (A) B                -0.6086
    ------------------------------------------------------
  ----------------------------------------------------------------------------


  Excited state  4 (A)                                             [converged]
  ----------------------------------------------------------------------------
  Term symbol:  5 (-) A                                     R^2 =  2.08403e-14

  Total energy:                                           -424.7187437649 a.u.
  Excitation energy:                                             304.595981 eV

  Osc. strength:                                                      0.000017
  Trans. dip. moment [a.u.]:           [  -0.001245,    0.000676,    0.000523]
  <i|r^2|0> [a.u.]:                    [   0.002661,    0.007078,   -0.000422]

  V1^2 = 0.8571, V2^2 = 0.1429

  Important amplitudes:
     core i     occ j      vir a      vir b          v   
    ------------------------------------------------------
     5 (A) B              22 (A) B                -0.9239
     5 (A) B   13 (A) A   22 (A) A   22 (A) B      0.0681
    ------------------------------------------------------
  ----------------------------------------------------------------------------


  Excited state  5 (A)                                             [converged]
  ----------------------------------------------------------------------------
  Term symbol:  6 (-) A                                     R^2 =  3.97110e-14

  Total energy:                                           -424.6935302605 a.u.
  Excitation energy:                                             305.282075 eV

  Osc. strength:                                                      0.003201
  Trans. dip. moment [a.u.]:           [  -0.007396,   -0.018381,    0.005951]
  <i|r^2|0> [a.u.]:                    [   0.000430,   -0.220397,   -0.018083]

  V1^2 = 0.9184, V2^2 = 0.0816

  Important amplitudes:
     core i     occ j      vir a      vir b          v   
    ------------------------------------------------------
     5 (A) B              23 (A) B                -0.6502
     5 (A) A              23 (A) A                -0.6445
    ------------------------------------------------------
  ----------------------------------------------------------------------------


  Excited state  6 (A)                                             [converged]
  ----------------------------------------------------------------------------
  Term symbol:  7 (-) A                                     R^2 =  2.08344e-14

  Total energy:                                           -424.6547559396 a.u.
  Excitation energy:                                             306.337178 eV

  Osc. strength:                                                      0.000000
  Trans. dip. moment [a.u.]:           [  -0.000143,    0.000078,    0.000061]
  <i|r^2|0> [a.u.]:                    [   0.000304,    0.000818,   -0.000049]

  V1^2 = 0.9538, V2^2 = 0.0462

  Important amplitudes:
     core i     occ j      vir a      vir b          v   
    ------------------------------------------------------
     5 (A) A              27 (A) A                -0.5392
     5 (A) B              27 (A) B                 0.5320
    ------------------------------------------------------
  ----------------------------------------------------------------------------


  Excited state  7 (A)                                             [converged]
  ----------------------------------------------------------------------------
  Term symbol:  8 (-) A                                     R^2 =  2.79256e-14

  Total energy:                                           -424.6538883183 a.u.
  Excitation energy:                                             306.360787 eV

  Osc. strength:                                                      0.000000
  Trans. dip. moment [a.u.]:           [   0.000019,    0.000002,    0.000026]
  <i|r^2|0> [a.u.]:                    [  -0.000038,    0.000021,   -0.000015]

  V1^2 = 0.9539, V2^2 = 0.0461

  Important amplitudes:
     core i     occ j      vir a      vir b          v   
    ------------------------------------------------------
     5 (A) A              28 (A) A                -0.5369
     5 (A) B              28 (A) B                 0.5357
    ------------------------------------------------------
  ----------------------------------------------------------------------------


  Excited state  8 (A)                                             [converged]
  ----------------------------------------------------------------------------
  Term symbol:  9 (-) A                                     R^2 =  2.46797e-14

  Total energy:                                           -424.5741721847 a.u.
  Excitation energy:                                             308.529973 eV

  Osc. strength:                                                      0.118482
  Trans. dip. moment [a.u.]:           [   0.105058,   -0.054818,   -0.040402]
  <i|r^2|0> [a.u.]:                    [  -0.219773,   -0.578379,    0.032432]

  V1^2 = 0.9443, V2^2 = 0.0557

  Important amplitudes:
     core i     occ j      vir a      vir b          v   
    ------------------------------------------------------
     5 (A) B              25 (A) B                 0.4873
     5 (A) A              27 (A) A                 0.4839
    ------------------------------------------------------
  ----------------------------------------------------------------------------


  Excited state  9 (A)                                             [converged]
  ----------------------------------------------------------------------------
  Term symbol:  10 (-) A                                    R^2 =  4.03339e-14

  Total energy:                                           -424.5733498463 a.u.
  Excitation energy:                                             308.552350 eV

  Osc. strength:                                                      0.118306
  Trans. dip. moment [a.u.]:           [   0.052384,    0.017676,    0.112222]
  <i|r^2|0> [a.u.]:                    [  -0.109723,    0.185265,   -0.069667]

  V1^2 = 0.9443, V2^2 = 0.0557

  Important amplitudes:
     core i     occ j      vir a      vir b          v   
    ------------------------------------------------------
     5 (A) B              24 (A) B                -0.4843
     5 (A) A              25 (A) A                 0.4843
    ------------------------------------------------------
  ----------------------------------------------------------------------------


  Excited state 10 (A)                                             [converged]
  ----------------------------------------------------------------------------
  Term symbol:  11 (-) A                                    R^2 =  1.32657e-13

  Total energy:                                           -424.3847971083 a.u.
  Excitation energy:                                             313.683131 eV

  Osc. strength:                                                      0.000001
  Trans. dip. moment [a.u.]:           [  -0.000092,   -0.000241,    0.000083]
  <i|r^2|0> [a.u.]:                    [   0.000212,   -0.002525,   -0.000030]

  V1^2 = 0.9145, V2^2 = 0.0855

  Important amplitudes:
     core i     occ j      vir a      vir b          v   
    ------------------------------------------------------
     5 (A) A              29 (A) A                 0.5191
     5 (A) B              29 (A) B                -0.5083
    ------------------------------------------------------
  ----------------------------------------------------------------------------


  Excited state 11 (A)                                             [converged]
  ----------------------------------------------------------------------------
  Term symbol:  12 (-) A                                    R^2 =  1.11243e-13

  Total energy:                                           -424.3489616130 a.u.
  Excitation energy:                                             314.658265 eV

  Osc. strength:                                                      0.000897
  Trans. dip. moment [a.u.]:           [  -0.004113,   -0.009576,    0.002789]
  <i|r^2|0> [a.u.]:                    [   0.007706,   -0.102170,   -0.002524]

  V1^2 = 0.9106, V2^2 = 0.0894

  Important amplitudes:
     core i     occ j      vir a      vir b          v   
    ------------------------------------------------------
     5 (A) A              26 (A) A                 0.6180
     5 (A) B              26 (A) B                -0.4150
    ------------------------------------------------------
  ----------------------------------------------------------------------------


  Excited state 12 (A)                                             [converged]
  ----------------------------------------------------------------------------
  Term symbol:  13 (-) A                                    R^2 =  1.23655e-13

  Total energy:                                           -424.3414964027 a.u.
  Excitation energy:                                             314.861403 eV

  Osc. strength:                                                      0.032221
  Trans. dip. moment [a.u.]:           [   0.025067,    0.057741,   -0.014650]
  <i|r^2|0> [a.u.]:                    [  -0.040310,    0.623391,    0.020458]

  V1^2 = 0.9106, V2^2 = 0.0894

  Important amplitudes:
     core i     occ j      vir a      vir b          v   
    ------------------------------------------------------
     5 (A) B              26 (A) B                -0.6325
     5 (A) A              26 (A) A                -0.5255
    ------------------------------------------------------
  ----------------------------------------------------------------------------


  Excited state 13 (A)                                             [converged]
  ----------------------------------------------------------------------------
  Term symbol:  14 (-) A                                    R^2 =  8.54252e-14

  Total energy:                                           -424.3407602737 a.u.
  Excitation energy:                                             314.881435 eV

  Osc. strength:                                                      0.000392
  Trans. dip. moment [a.u.]:           [   0.005885,   -0.003156,   -0.002491]
  <i|r^2|0> [a.u.]:                    [  -0.012126,   -0.033385,    0.001880]

  V1^2 = 0.8967, V2^2 = 0.1033

  Important amplitudes:
     core i     occ j      vir a      vir b          v   
    ------------------------------------------------------
     5 (A) A              24 (A) A                -0.5676
     5 (A) A              27 (A) A                 0.4678
    ------------------------------------------------------
  ----------------------------------------------------------------------------


  Excited state 14 (A)                                             [converged]
  ----------------------------------------------------------------------------
  Term symbol:  15 (-) A                                    R^2 =  1.58889e-13

  Total energy:                                           -424.3388372187 a.u.
  Excitation energy:                                             314.933764 eV

  Osc. strength:                                                      0.000673
  Trans. dip. moment [a.u.]:           [   0.004064,    0.008215,   -0.001797]
  <i|r^2|0> [a.u.]:                    [  -0.006231,    0.089263,    0.003263]

  V1^2 = 0.8987, V2^2 = 0.1013

  Important amplitudes:
     core i     occ j      vir a      vir b          v   
    ------------------------------------------------------
     5 (A) A              25 (A) A                -0.4932
     5 (A) B              24 (A) B                -0.4721
    ------------------------------------------------------
  ----------------------------------------------------------------------------


  Excited state 15 (A)                                             [converged]
  ----------------------------------------------------------------------------
  Term symbol:  16 (-) A                                    R^2 =  1.58877e-13

  Total energy:                                           -424.3262443363 a.u.
  Excitation energy:                                             315.276433 eV

  Osc. strength:                                                      0.029289
  Trans. dip. moment [a.u.]:           [  -0.050718,    0.027443,    0.021596]
  <i|r^2|0> [a.u.]:                    [   0.104658,    0.290568,   -0.016002]

  V1^2 = 0.9005, V2^2 = 0.0995

  Important amplitudes:
     core i     occ j      vir a      vir b          v   
    ------------------------------------------------------
     5 (A) B              27 (A) B                -0.5271
     5 (A) B              25 (A) B                 0.5139
    ------------------------------------------------------
  ----------------------------------------------------------------------------


  Excited state 16 (A)                                             [converged]
  ----------------------------------------------------------------------------
  Term symbol:  17 (-) A                                    R^2 =  2.70561e-13

  Total energy:                                           -424.3256266744 a.u.
  Excitation energy:                                             315.293241 eV

  Osc. strength:                                                      0.029532
  Trans. dip. moment [a.u.]:           [  -0.026339,   -0.004977,   -0.055719]
  <i|r^2|0> [a.u.]:                    [   0.057393,   -0.048854,    0.038977]

  V1^2 = 0.9012, V2^2 = 0.0988

  Important amplitudes:
     core i     occ j      vir a      vir b          v   
    ------------------------------------------------------
     5 (A) B              28 (A) B                -0.4803
     5 (A) A              28 (A) A                -0.4778
    ------------------------------------------------------
  ----------------------------------------------------------------------------


  Excited state 17 (A)                                             [converged]
  ----------------------------------------------------------------------------
  Term symbol:  18 (-) A                                    R^2 =  6.11713e-13

  Total energy:                                           -424.2988720869 a.u.
  Excitation energy:                                             316.021270 eV

  Osc. strength:                                                      0.007691
  Trans. dip. moment [a.u.]:           [   0.008353,    0.027127,   -0.013699]
  <i|r^2|0> [a.u.]:                    [  -0.039900,    0.262821,   -0.013869]

  V1^2 = 0.9168, V2^2 = 0.0832

  Important amplitudes:
     core i     occ j      vir a      vir b          v   
    ------------------------------------------------------
     5 (A) B              29 (A) B                -0.6152
     5 (A) A              29 (A) A                -0.5745
    ------------------------------------------------------
  ----------------------------------------------------------------------------


  Excited state 18 (A)                                         [not converged]
  ----------------------------------------------------------------------------
  Term symbol:  19 (-) A                                    R^2 =  1.98065e-05

  Total energy:                                           -423.6930438907 a.u.
  Excitation energy:                                             332.506694 eV


  V1^2 = 0.8730, V2^2 = 0.1270

  Important amplitudes:
     core i     occ j      vir a      vir b          v   
    ------------------------------------------------------
     5 (A) A              32 (A) A                 0.6518
     5 (A) B              31 (A) B                -0.6516
    ------------------------------------------------------
  ----------------------------------------------------------------------------


  Excited state 19 (A)                                             [converged]
  ----------------------------------------------------------------------------
  Term symbol:  20 (-) A                                    R^2 =  6.11273e-07

  Total energy:                                           -423.6928991783 a.u.
  Excitation energy:                                             332.510631 eV

  Osc. strength:                                                      0.000001
  Trans. dip. moment [a.u.]:           [  -0.000258,    0.000159,    0.000103]
  <i|r^2|0> [a.u.]:                    [   0.000496,    0.001645,    0.000014]

  V1^2 = 0.8730, V2^2 = 0.1270

  Important amplitudes:
     core i     occ j      vir a      vir b          v   
    ------------------------------------------------------
     5 (A) A              33 (A) A                 0.6585
     5 (A) B              32 (A) B                -0.6473
    ------------------------------------------------------
  ----------------------------------------------------------------------------


  Excited state 20 (A)                                         [not converged]
  ----------------------------------------------------------------------------
  Term symbol:  21 (-) A                                    R^2 =  1.11998e-03

  Total energy:                                           -423.6861219893 a.u.
  Excitation energy:                                             332.695048 eV


  V1^2 = 0.8711, V2^2 = 0.1289

  Important amplitudes:
     core i     occ j      vir a      vir b          v   
    ------------------------------------------------------
     5 (A) B              31 (A) B                -0.5821
     5 (A) A              32 (A) A                -0.5609
    ------------------------------------------------------
  ----------------------------------------------------------------------------


--------------------------------------------------------------------------------
  Time of ADC calculation:  CPU 1364.01 s  wall 1393.13 s
================================================================================
 
 --------------------------------------------------------------
 
                    Orbital Energies (a.u.)
 --------------------------------------------------------------
 
 Alpha MOs
 -- Occupied --
-26.744 -26.744 -26.744 -26.624 -11.943  -2.187  -2.074  -2.074
 -1.874  -1.326  -1.250  -1.250  -1.200  -1.076  -1.076  -1.049
 -1.047  -1.038  -1.020  -0.935  -0.932
 -- Virtual --
 -0.177   0.028   0.217   0.219   0.362   0.430   0.432   0.446
  0.946   1.010   1.012   1.012   1.096   1.116   1.193   1.233
  1.251   1.272   1.276   1.291   1.291   1.310   1.396   1.524
  1.646   1.647   1.751   1.753   1.786   1.793   1.804   1.823
  1.849   1.864   1.987   1.988   2.002   2.028   2.068   2.093
  2.188   2.453   2.710   2.711   3.052   3.054   3.266   3.266
  3.287   3.640   4.296   4.939   4.940   4.979
 
 Beta MOs
 -- Occupied --
-26.744 -26.744 -26.744 -26.576 -11.943  -2.187  -2.074  -2.074
 -1.680  -1.326  -1.250  -1.250  -1.200  -1.076  -1.076  -1.047
 -1.047  -1.020  -0.881  -0.879
 -- Virtual --
 -0.176  -0.122   0.029   0.219   0.221   0.365   0.432   0.432
  0.447   0.966   1.012   1.012   1.019   1.119   1.125   1.249
  1.263   1.266   1.281   1.288   1.293   1.310   1.388   1.397
  1.534   1.647   1.649   1.753   1.753   1.786   1.827   1.841
  1.845   1.937   1.939   1.988   1.988   2.032   2.039   2.071
  2.093   2.195   2.459   2.710   2.711   3.052   3.054   3.266
  3.267   3.289   3.677   4.298   4.939   4.941   4.980
 --------------------------------------------------------------
 
          Ground-State Mulliken Net Atomic Charges

     Atom                 Charge (a.u.)    Spin (a.u.)
  --------------------------------------------------------
      1 C                     1.180366      -0.005163
      2 F                    -0.072101      -0.000022
      3 F                    -0.071798      -0.000025
      4 F                     0.032209       1.005270
      5 F                    -0.068676      -0.000060
  --------------------------------------------------------
  Sum of atomic charges =     1.000000
  Sum of spin   charges =     1.000000

 -----------------------------------------------------------------
                    Cartesian Multipole Moments
 -----------------------------------------------------------------
    Charge (ESU x 10^10)
                 4.8032
    Dipole Moment (Debye)
         X      -2.7564      Y      12.9659      Z      -0.6760
       Tot      13.2729
    Quadrupole Moments (Debye-Ang)
        XX     -18.6966     XY      -7.1332     YY      15.7294
        XZ      -0.0827     YZ      -2.3221     ZZ     -20.6364
    Octopole Moments (Debye-Ang^2)
       XXX      41.5100    XXY     -44.5288    XYY      -4.7561
       YYY     -43.0225    XXZ       1.2304    XYZ       0.4898
       YYZ      -6.7941    XZZ      13.4052    YZZ     -48.1486
       ZZZ      -0.4546
    Hexadecapole Moments (Debye-Ang^3)
      XXXX    -131.2515   XXXY      86.5798   XXYY    -151.9254
      XYYY      34.9308   YYYY    -536.8644   XXXZ       2.3657
      XXYZ       6.5754   XYYZ       3.3801   YYYZ      -2.7613
      XXZZ     -33.6818   XYZZ      26.8637   YYZZ    -149.2956
      XZZZ       6.1287   YZZZ      15.2082   ZZZZ     -77.9342
 -----------------------------------------------------------------
Archival summary:
1\1\tp-linux1\SP\HF\6-31G*\41(1+,2)\thomas\WedMar2213:02:542017WedMar2213:02:542017\0\\#,HF,6-31G*,\\1,2\C\F,1,1.19792\F,1,1.19895,2,119.428\F,1,1.1991,2,119.427,3,164.895,0\F,1,2.64754,2,97.0064,3,-97.6653,0\\HF=-435.175958\\@

 Total job time:  1409.33s(wall), 1375.59s(cpu) 
 Wed Mar 22 13:02:54 2017

        *************************************************************
        *                                                           *
        *  Thank you very much for using Q-Chem.  Have a nice day.  *
        *                                                           *
        *************************************************************


0 sent ACK to 0 
now end server 0 ... 
cleanup process ... done
