
Running Job 1 of 1 ddtraj1t50.inp
qchem ddtraj1t50.inp_20354.0 /scratch/qchem/qchem20354/ 1
/mnt/software/qchem/bin/mpi/mpirun_qchem -machinefile /mnt/software/qchem/bin/mpi/machines -np 1 /mnt/software/qchem/exe/qcprog.exe ddtraj1t50.inp_20354.0 /scratch/qchem/qchem20354/

Process 0 of 1 is on tp-linux1 - thread support 0
initial socket setup ...start
initial socket setup ...done 
now start server 0 ... 

cmd = ssh tp-linux1 /mnt/software/qchem/bin/get_hostid 1682677742 > /scratch/qchem/qchem20354/lic.dat
                  Welcome to Q-Chem
     A Quantum Leap Into The Future Of Chemistry


 Q-Chem 4.3, Q-Chem, Inc., Pleasanton, CA (2015)

 Y. Shao,  Z. Gan,  E. Epifanovsky,  A. T. B. Gilbert,  M. Wormit,  
 J. Kussmann,  A. W. Lange,  A. Behn,  J. Deng,  X. Feng,  D. Ghosh,  
 M. Goldey,  P. R. Horn,  L. D. Jacobson,  I. Kaliman,  R. Z. Khaliullin,  
 T. Kus,  A. Landau,  J. Liu,  E. I. Proynov,  Y. M. Rhee,  R. M. Richard,  
 M. A. Rohrdanz,  R. P. Steele,  E. J. Sundstrom,  H. L. Woodcock III,  
 P. M. Zimmerman,  D. Zuev,  B. Albrecht,  E. Alguire,  B. Austin,  
 S. A. Baeppler,  G. J. O. Beran,  Y. A. Bernard,  E. Berquist,  
 K. Brandhorst,  K. B. Bravaya,  S. T. Brown,  D. Casanova,  C.-M. Chang,  
 Y. Chen,  S. H. Chien,  K. D. Closser,  D. L. Crittenden,  M. Diedenhofen,  
 R. A. DiStasio Jr.,  H. Do,  A. D. Dutoi,  R. G. Edgar,  P.-T. Fang,  
 S. Fatehi,  Q. Feng,  L. Fusti-Molnar,  A. Ghysels,  
 A. Golubeva-Zadorozhnaya,  J. Gomes,  A. Gunina,  M. W. D. Hanson-Heine,  
 P. H. P. Harbach,  A. W. Hauser,  E. G. Hohenstein,  Z. C. Holden,  K. Hui,  
 T.-C. Jagau,  H. Ji,  B. Kaduk,  K. Khistyaev,  Jaehoon Kim,  Jihan Kim,  
 R. A. King,  P. Klunzinger,  D. Kosenkov,  T. Kowalczyk,  C. M. Krauter,  
 K. U. Lao,  A. Laurent,  K. V. Lawler,  S. Lehtola,  S. V. Levchenko,  
 C. Y. Lin,  Y.-S. Lin,  F. Liu,  E. Livshits,  R. C. Lochan,  A. Luenser,  
 P. Manohar,  S. F. Manzer,  S.-P. Mao,  N. Mardirossian,  A. V. Marenich,  
 L. A. Martinez-Martinez,  S. A. Maurer,  N. J. Mayhall,  K. Nanda,  
 C. M. Oana,  R. Olivares-Amaya,  D. P. O'Neill,  J. A. Parkhill,  
 T. M. Perrine,  R. Peverati,  P. A. Pieniazek,  F. Plasser,  A. Prociuk,  
 D. R. Rehn,  E. Rosta,  N. J. Russ,  N. Sergueev,  S. M. Sharada,  
 S. Sharma,  D. W. Small,  A. Sodt,  T. Stauch,  T. Stein,  D. Stuck,  
 Y.-C. Su,  A. J. W. Thom,  T. Tsuchimochi,  L. Vogt,  O. Vydrov,  T. Wang,  
 M. A. Watson,  J. Wenzel,  A. White,  C. F. Williams,  V. Vanovschi,  
 S. Yeganeh,  S. R. Yost,  Z.-Q. You,  I. Y. Zhang,  X. Zhang,  Y. Zhao,  
 B. R. Brooks,  G. K. L. Chan,  D. M. Chipman,  C. J. Cramer,  
 W. A. Goddard III,  M. S. Gordon,  W. J. Hehre,  A. Klamt,  
 H. F. Schaefer III,  M. W. Schmidt,  C. D. Sherrill,  D. G. Truhlar,  
 A. Warshel,  X. Xu,  A. Aspuru-Guzik,  R. Baer,  A. T. Bell,  N. A. Besley,  
 J.-D. Chai,  A. Dreuw,  B. D. Dunietz,  T. R. Furlani,  S. R. Gwaltney,  
 C.-P. Hsu,  Y. Jung,  J. Kong,  D. S. Lambrecht,  W. Liang,  C. Ochsenfeld,  
 V. A. Rassolov,  L. V. Slipchenko,  J. E. Subotnik,  T. Van Voorhis,  
 J. M. Herbert,  A. I. Krylov,  P. M. W. Gill,  M. Head-Gordon

 Contributors to earlier versions of Q-Chem not listed above: 
 R. D. Adamson,  J. Baker,  E. F. C. Byrd,  A. K. Chakraborty,  C.-L. Cheng,  
 H. Dachsel,  R. J. Doerksen,  G. Hawkins,  A. Heyden,  S. Hirata,  
 G. Kedziora,  F. J. Keil,  C. Kelley,  P. P. Korambath,  W. Kurlancheek,  
 A. M. Lee,  M. S. Lee,  D. Liotard,  I. Lotan,  P. E. Maslen,  N. Nair,  
 D. Neuhauser,  R. Olson,  B. Peters,  J. Ritchie,  N. E. Schultz,  
 N. Shenvi,  A. C. Simmonett,  K. S. Thanthiriwatte,  Q. Wu,  W. Zhang

 Please cite Q-Chem as follows:
 Y. Shao et al., Mol. Phys. 113, 184-215 (2015)
 DOI: 10.1080/00268976.2014.952696

 Q-Chem 4.3.0 for Intel X86 Linux

 Parts of Q-Chem use Armadillo 5.200.1 (Boston Tea Smuggler).
 http://arma.sourceforge.net/

 Q-Chem begins on Wed Mar 22 20:29:06 2017  

Host: 
0

     Scratch files written to /scratch/qchem/qchem20354//
 Nov1815 1189b_ 19540  19532 5443   
 Parallel job on  1  processors
Processing $rem in /mnt/software/qchem/config/preferences.
 MEM_TOTAL  2000 

Checking the input file for inconsistencies... 	...done.

--------------------------------------------------------------
User input:
--------------------------------------------------------------
$comment
XAS calculation for valence excited states for CF4+ using cvs-adc(2) + 6-31G* basis set
job 1 - determination of HF orbitals
$end

$molecule
1 2
6  -0.424778  3.098216  -0.290027
9  0.667654  2.612517  -0.113749
9  -1.033332  3.540165  0.655515
9  -1.596486  -0.108242  0.960942
9  -1.008609  2.881446  -1.319518
$end

$comment
cvs-adc(2) calculation
$end

$rem
mem_total 3000
mem_static 1500
sym_ignore true
method cvs-adc(2)
basis 6-31G*
ee_singlets 20
cc_rest_occ 5                  !only excitations from the lowest N orbitals
unrestricted  true
max_scf_cycles 200
SCF_ALGORITHM = DIIS_GDM
SCF_CONVERGENCE = 7
THRESH = 10
$end
--------------------------------------------------------------
 ----------------------------------------------------------------
             Standard Nuclear Orientation (Angstroms)
    I     Atom           X                Y                Z
 ----------------------------------------------------------------
    1      C      -0.4247780000     3.0982160000    -0.2900270000
    2      F       0.6676540000     2.6125170000    -0.1137490000
    3      F      -1.0333320000     3.5401650000     0.6555150000
    4      F      -1.5964860000    -0.1082420000     0.9609420000
    5      F      -1.0086090000     2.8814460000    -1.3195180000
 ----------------------------------------------------------------
 Nuclear Repulsion Energy =   175.0606000387 hartrees
 There are       21 alpha and       20 beta electrons
 Requested basis set is 6-31G(d)
 There are 20 shells and 75 basis functions

 Total QAlloc Memory Limit   3000 MB
 Mega-Array Size      1467 MB
 MEM_STATIC part      1500 MB

                       Distance Matrix (Angstroms)
             C (  1)   F (  2)   F (  3)   F (  4)
   F (  2)  1.208464
   F (  3)  1.208183  2.084623
   F (  4)  3.635821  3.699165  3.704228
   F (  5)  1.203204  2.082321  2.082133  3.805829
 
 tim1(1): 
  0.000000000000000E+000
 tim1(2): 
  0.000000000000000E+000
 A cutoff of  1.0D-10 yielded    177 shell pairs
 There are      2682 function pairs
 
 -------------------------------------------------------
 OpenMP Integral Computing Module                       
 Release: version 1.0, May 2013, Q-Chem Inc. Pittsburgh 
 -------------------------------------------------------
 Integral Job Info:
 Integral job number is                      11
 Integral operator is                         1
 short-range coefficients                     0
 long-range coefficients              100000000
 Omega coefficients                           0
 if combine SR and LR in K                    0
 Integral screening is                        0
 Integral computing path is                   2
 max size of driver memory is            800000
 size of driver memory is                593474
 size of scratch memory is              2260544
 max col of scratch BK array               1296
 max len of scratch array in speh3          155
 max len of scratch index in speh4           18
 max int batch size is                      520
 min int batch size is                       52
 fixed nKL is                                52
 max L of basis functions is                  2
 order of int derivative is                   0
 number of shells is                         20
 number of basis is                          75
 number of cartesian basis is                75
 number of contracted shell pairs           177
 number of primitive shell pairs            919
 maxK2 (contraction) of shell pair           36
 max number of K2 of shell pair               1
 max number of CS2 of shell pair             31
 max number of PS2 of shell pair            186
 mem total for path MDJ                   17476
 -------------------------------------------------------
 Smallest overlap matrix eigenvalue = 3.99E-03

 Scale SEOQF with 1.000000e-01/1.000000e-01/1.000000e+00

 Standard Electronic Orientation quadrupole field applied
 Nucleus-field energy     =    -0.0000000069 hartrees
 Guess from superposition of atomic densities
 Warning:  Energy on first SCF cycle will be non-variational
 An unrestricted Hartree-Fock SCF calculation will be
 performed using Pulay DIIS + Geometric Direct Minimization
 SCF converges when RMS gradient is below 1.0E-07
 ---------------------------------------
  Cycle       Energy         DIIS Error
 ---------------------------------------
    1    -436.5099685111      9.49E-02
    2    -434.9925428546      1.76E-02
    3    -435.1408767514      7.93E-03 Done DIIS. Switching to GDM
    4    -435.1694159310      9.40E-03 Normal BFGS step
    5    -435.1703084787      8.15E-03 Normal BFGS step
    6    -435.1706063392      1.61E-03 Normal BFGS step
    7    -435.1706238328      9.91E-04 Normal BFGS step
    8    -435.1706267686      9.82E-04 Normal BFGS step
    9    -435.1706287532      9.72E-04 Normal BFGS step
   10    -435.1706332626      9.45E-04 Normal BFGS step
   11    -435.1706426746      1.19E-03 Normal BFGS step
   12    -435.1706634813      1.87E-03 Normal BFGS step
   13    -435.1706977772      2.23E-03 Normal BFGS step
   14    -435.1707310733      1.68E-03 Normal BFGS step
   15    -435.1707467716      5.75E-04 Normal BFGS step
   16    -435.1707488148      1.79E-04 Normal BFGS step
   17    -435.1707489395      7.78E-05 Normal BFGS step
   18    -435.1707489626      1.13E-05 Normal BFGS step
   19    -435.1707489635      3.03E-06 Normal BFGS step
   20    -435.1707489636      8.91E-07 Normal BFGS step
   21    -435.1707489636      9.31E-08 Convergence criterion met
 ---------------------------------------
 <S^2> = 0.7527
 SCF time:  CPU 2.97 s  wall 4.23 s
 SCF   energy in the final basis set = -435.1707489636
 Total energy in the final basis set = -435.1707489636
================================================================================
|                                                                              |
|                                 A D C  M A N                                 |
|                                                                              |
 ------------------------------------------------------------------------------ 
|                                                                              |
| Components:                                                                  |
|                                                                              |
| - libvmm - 1.2-release                                                       |
|   Authors:                                                                   |
|   Evgeny Epifanovsky, Ilya Kaliman                                           |
|                                                                              |
| - libtensor - 2.4-trunk                                                      |
|   Authors:                                                                   |
|   Evgeny Epifanovsky, Michael Wormit, Dmitry Zuev, Sam Manzer                |
|                                                                              |
| - libwfa - 1.1-beta                                                          |
|   Authors:                                                                   |
|   Felix Plasser, Stefanie Baeppler, Benjamin Thomitzni, Michael Wormit       |
|                                                                              |
| - libadc - 1.0-beta                                                          |
|   Authors:                                                                   |
|   Michael Wormit, Philipp H. P. Harbach, Caroline Krauter, Dirk Rehn,        |
|   Matthias Schneider, Jan Wenzel                                             |
|                                                                              |
| - adcman - 2.4-beta                                                          |
|   Authors:                                                                   |
|   Michael Wormit, Philipp H. P. Harbach, Caroline Krauter, Dirk Rehn,        |
|   Jan Wenzel, Andreas Dreuw                                                  |
|                                                                              |
| Authors of earlier versions of ADCMAN:                                       |
| Andreas Dreuw, Jan Hendrik Starcke, Dirk Rehn, Michael Wormit                |
|                                                                              |
================================================================================

 
 Alpha MOs, Unrestricted
 -- Occupied --                  
-26.751 -26.749 -26.749 -26.550 -11.951  -2.185  -2.076  -2.073
  1 A     2 A     3 A     4 A     5 A     6 A     7 A     8 A                  
 -1.802  -1.329  -1.251  -1.251  -1.199  -1.078  -1.078  -1.051
  9 A    10 A    11 A    12 A    13 A    14 A    15 A    16 A                  
 -1.049  -1.025  -0.970  -0.864  -0.862
 17 A    18 A    19 A    20 A    21 A                                          
 -- Virtual --                   
 -0.199   0.017   0.207   0.208   0.330   0.417   0.421   0.431
 22 A    23 A    24 A    25 A    26 A    27 A    28 A    29 A                  
  0.926   1.002   1.008   1.009   1.124   1.125   1.219   1.265
 30 A    31 A    32 A    33 A    34 A    35 A    36 A    37 A                  
  1.266   1.270   1.284   1.285   1.290   1.306   1.340   1.418
 38 A    39 A    40 A    41 A    42 A    43 A    44 A    45 A                  
  1.639   1.639   1.747   1.748   1.780   1.873   1.891   1.895
 46 A    47 A    48 A    49 A    50 A    51 A    52 A    53 A                  
  1.907   1.913   1.916   1.966   1.970   1.970   1.974   2.073
 54 A    55 A    56 A    57 A    58 A    59 A    60 A    61 A                  
  2.080   2.320   2.688   2.692   3.019   3.025   3.229   3.238
 62 A    63 A    64 A    65 A    66 A    67 A    68 A    69 A                  
  3.240   3.566   4.184   4.680   4.853   4.866
 70 A    71 A    72 A    73 A    74 A    75 A                                  
 
 Beta MOs, Unrestricted
 -- Occupied --                  
-26.751 -26.749 -26.749 -26.502 -11.951  -2.185  -2.076  -2.073
  1 A     2 A     3 A     4 A     5 A     6 A     7 A     8 A                  
 -1.610  -1.329  -1.251  -1.251  -1.199  -1.078  -1.078  -1.051
  9 A    10 A    11 A    12 A    13 A    14 A    15 A    16 A                  
 -1.049  -1.025  -0.812  -0.810
 17 A    18 A    19 A    20 A                                                  
 -- Virtual --                   
 -0.199  -0.052   0.017   0.207   0.208   0.330   0.417   0.421
 21 A    22 A    23 A    24 A    25 A    26 A    27 A    28 A                  
  0.432   0.957   1.002   1.008   1.009   1.124   1.125   1.266
 29 A    30 A    31 A    32 A    33 A    34 A    35 A    36 A                  
  1.266   1.285   1.285   1.291   1.306   1.314   1.340   1.421
 37 A    38 A    39 A    40 A    41 A    42 A    43 A    44 A                  
  1.443   1.639   1.639   1.747   1.748   1.780   1.884   1.895
 45 A    46 A    47 A    48 A    49 A    50 A    51 A    52 A                  
  1.897   1.970   1.970   1.973   1.979   2.000   2.002   2.014
 53 A    54 A    55 A    56 A    57 A    58 A    59 A    60 A                  
  2.073   2.081   2.320   2.688   2.692   3.019   3.025   3.230
 61 A    62 A    63 A    64 A    65 A    66 A    67 A    68 A                  
  3.238   3.240   3.607   4.184   4.680   4.853   4.866
 69 A    70 A    71 A    72 A    73 A    74 A    75 A                          
 

--------------------------------------------------------------------------------
                                   HF Summary                                   
--------------------------------------------------------------------------------
  Energy:                                                 -435.1707489636 a.u.
  Dip. moment [a.u.]:                  [ -54.536266,  181.081381,    0.379882]
  Total dipole [Debye]:                                             480.684704
  <r^2> [a.u.]:                        [ 181.654434, 1075.718931,  116.630443]
  Total <r^2> [a.u.]:                                              1374.003807
--------------------------------------------------------------------------------

--------------------------------------------------------------------------------
                                 MP(2) Summary                                  
--------------------------------------------------------------------------------
  Energy contribution:                                      -0.7369740756 a.u.
  Total energy:                                           -435.9077230391 a.u.
  Dip. moment [a.u.]:                  [ -54.513631,  181.139932,    0.359246]
  Total dipole [Debye]:                                             480.810521
  <r^2> [a.u.]:                        [ 181.403459, 1076.564616,  116.417222]
  Total <r^2> [a.u.]:                                              1374.385296
--------------------------------------------------------------------------------
  Starting Davidson ... 
--------------------------------------------------------------------------------
   It NVec Conv  Avg. Norm  Max. Norm  Conv. states           Remark
--------------------------------------------------------------------------------
        20    0  2.090e-01  1.154e+00 10.9756 n n n n n n n n Guess.
    1   40    0  5.282e-02  7.689e-01 10.8191 n n n n n n n n 
    2   60    0  8.239e-03  9.378e-02 10.8178 n n n n n n n n 
    3   80    0  2.436e-03  3.007e-02 10.8177 n n n n n n n n 
    4  100    0  1.102e-03  1.510e-02 10.8177 n n n n n n n n 
    5   40    0  6.981e-04  9.379e-03 10.8177 n n n n n n n n Subspace collapsed.
    6   60    0  1.285e-03  2.273e-02 10.8177 n n n n n n n n 
    7   80    1  1.534e-03  2.864e-02 10.8177 y n n n n n n n 
    8  100    3  1.947e-03  3.682e-02 10.8177 y y n n n n y n 
    9   40    7  1.171e-03  2.284e-02 10.8177 y y n n y y y y Subspace collapsed.
   10   60    8  8.617e-04  1.674e-02 10.8177 y y n y y y y y 
   11   80   10  6.955e-04  1.345e-02 10.8177 y y y y y y y y 
   12  100   16  7.749e-04  1.484e-02 10.8177 y y y y y y y y 
   13   40   17  3.988e-04  7.594e-03 10.8177 y y y y y y y y Subspace collapsed.
   14   60   17  5.488e-04  1.052e-02 10.8177 y y y y y y y y 
   15   80   17  7.793e-04  1.534e-02 10.8177 y y y y y y y y 
   16   99   17  1.173e-03  2.319e-02 10.8177 y y y y y y y y 
   17  100   17  1.172e-03  2.317e-02 10.8177 y y y y y y y y 
   18   38   17  5.910e-04  1.164e-02 10.8177 y y y y y y y y Subspace collapsed.
   19   56   17  3.806e-04  7.335e-03 10.8177 y y y y y y y y 
   20   59   17  3.785e-04  7.292e-03 10.8177 y y y y y y y y 
   21   73   17  2.434e-04  4.670e-03 10.8177 y y y y y y y y 
   22   74   17  2.431e-04  4.664e-03 10.8177 y y y y y y y y 
   23   74   17  2.431e-04  4.664e-03 10.8177 y y y y y y y y 
   24   94   17  2.948e-04  5.650e-03 10.8177 y y y y y y y y 
   25  100   17  2.938e-04  5.615e-03 10.8177 y y y y y y y y 
   26   31   17  2.168e-04  4.191e-03 10.8177 y y y y y y y y Subspace collapsed.
   27   42   17  3.195e-04  6.235e-03 10.8177 y y y y y y y y 
   28   44   17  3.207e-04  6.263e-03 10.8177 y y y y y y y y 
   29   44   17  3.207e-04  6.263e-03 10.8177 y y y y y y y y 
   30   45   17  3.206e-04  6.262e-03 10.8177 y y y y y y y y 
   31   45   17  3.206e-04  6.262e-03 10.8177 y y y y y y y y 
   32   45   17  3.206e-04  6.262e-03 10.8177 y y y y y y y y 
   33   65   17  3.954e-04  7.811e-03 10.8177 y y y y y y y y 
   34   67   17  3.930e-04  7.761e-03 10.8177 y y y y y y y y 
   35   76   17  4.952e-04  9.804e-03 10.8177 y y y y y y y y 
   36   83   17  5.000e-04  9.840e-03 10.8177 y y y y y y y y 
   37   89   17  3.356e-04  6.643e-03 10.8177 y y y y y y y y 
   38   89   17  3.356e-04  6.643e-03 10.8177 y y y y y y y y 
   39   89   17  3.356e-04  6.643e-03 10.8177 y y y y y y y y 
   40   95   17  3.274e-04  6.483e-03 10.8177 y y y y y y y y 
   41   95   17  3.274e-04  6.483e-03 10.8177 y y y y y y y y 
   42   95   17  3.274e-04  6.483e-03 10.8177 y y y y y y y y 
   43   95   17  3.274e-04  6.483e-03 10.8177 y y y y y y y y 
   44  100   17  3.241e-04  6.423e-03 10.8177 y y y y y y y y 
   45   25   17  1.981e-04  3.935e-03 10.8177 y y y y y y y y Subspace collapsed.
   46   25   17  1.981e-04  3.935e-03 10.8177 y y y y y y y y 
   47   26   17  1.982e-04  3.936e-03 10.8177 y y y y y y y y 
   48   26   17  1.982e-04  3.936e-03 10.8177 y y y y y y y y 
   49   27   17  1.981e-04  3.936e-03 10.8177 y y y y y y y y 
   50   27   17  1.981e-04  3.936e-03 10.8177 y y y y y y y y 
   51   28   17  1.984e-04  3.941e-03 10.8177 y y y y y y y y 
   52   28   17  1.984e-04  3.941e-03 10.8177 y y y y y y y y 
   53   40   17  1.368e-04  2.725e-03 10.8177 y y y y y y y y 
   54   43   17  9.711e-05  1.933e-03 10.8177 y y y y y y y y 
   55   46   17  8.628e-05  1.719e-03 10.8177 y y y y y y y y 
   56   49   17  7.504e-05  1.496e-03 10.8177 y y y y y y y y 
   57   52   17  5.256e-05  1.047e-03 10.8177 y y y y y y y y 
   58   55   17  3.487e-05  6.934e-04 10.8177 y y y y y y y y 
   59   58   17  2.945e-05  5.845e-04 10.8177 y y y y y y y y 
--------------------------------------------------------------------------------
  Davidson Summary: 
 ------------------------------------------------------------
  State  0: excitation energy =  10.8177 a.u.   (converged)
  State  1: excitation energy =  10.8879 a.u.   (converged)
  State  2: excitation energy =  11.1546 a.u.   (converged)
  State  3: excitation energy =  11.2090 a.u.   (converged)
  State  4: excitation energy =  11.2450 a.u.   (converged)
  State  5: excitation energy =  11.2495 a.u.   (converged)
  State  6: excitation energy =  11.3104 a.u.   (converged)
  State  7: excitation energy =  11.3253 a.u.   (converged)
  State  8: excitation energy =  11.3296 a.u.   (converged)
  State  9: excitation energy =  11.5201 a.u.   (converged)
  State 10: excitation energy =  11.5331 a.u.   (converged)
  State 11: excitation energy =  11.5493 a.u.   (converged)
  State 12: excitation energy =  11.5734 a.u.   (converged)
  State 13: excitation energy =  11.5737 a.u.   (converged)
  State 14: excitation energy =  11.5877 a.u.   (converged)
  State 15: excitation energy =  11.5883 a.u.   (converged)
  State 16: excitation energy =  11.5963 a.u.   (converged)
  State 17: excitation energy =  12.2221 a.u.   (not converged)
  State 18: excitation energy =  12.2244 a.u.   (not converged)
  State 19: excitation energy =  12.2290 a.u.   (not converged)
 ------------------------------------------------------------


--------------------------------------------------------------------------------
                             Excited State Summary
--------------------------------------------------------------------------------

  Excited state  1 (A)                                             [converged]
  ----------------------------------------------------------------------------
  Term symbol:  2 (-) A                                     R^2 =  6.54150e-14

  Total energy:                                           -425.0900058427 a.u.
  Excitation energy:                                             294.365056 eV

  Osc. strength:                                                      0.000000
  Trans. dip. moment [a.u.]:           [  -0.000001,   -0.000002,    0.000001]
  <i|r^2|0> [a.u.]:                    [   0.000001,   -0.000023,   -0.000001]

  V1^2 = 0.9581, V2^2 = 0.0419

  Important amplitudes:
     core i     occ j      vir a      vir b          v   
    ------------------------------------------------------
     5 (A) B              21 (A) B                -0.6508
     5 (A) A              22 (A) A                 0.6508
    ------------------------------------------------------
  ----------------------------------------------------------------------------


  Excited state  2 (A)                                             [converged]
  ----------------------------------------------------------------------------
  Term symbol:  3 (-) A                                     R^2 =  6.17795e-14

  Total energy:                                           -425.0198192214 a.u.
  Excitation energy:                                             296.274931 eV

  Osc. strength:                                                      0.106778
  Trans. dip. moment [a.u.]:           [   0.042798,    0.107821,   -0.035405]
  <i|r^2|0> [a.u.]:                    [  -0.065019,    1.268305,    0.042350]

  V1^2 = 0.9535, V2^2 = 0.0465

  Important amplitudes:
     core i     occ j      vir a      vir b          v   
    ------------------------------------------------------
     5 (A) A              22 (A) A                 0.6629
     5 (A) B              21 (A) B                 0.6629
    ------------------------------------------------------
  ----------------------------------------------------------------------------


  Excited state  3 (A)                                             [converged]
  ----------------------------------------------------------------------------
  Term symbol:  4 (-) A                                     R^2 =  1.13371e-13

  Total energy:                                           -424.7531398587 a.u.
  Excitation energy:                                             303.531645 eV

  Osc. strength:                                                      0.000000
  Trans. dip. moment [a.u.]:           [  -0.000000,    0.000000,   -0.000000]
  <i|r^2|0> [a.u.]:                    [  -0.000003,   -0.000004,   -0.000003]

  V1^2 = 0.9289, V2^2 = 0.0711

  Important amplitudes:
     core i     occ j      vir a      vir b          v   
    ------------------------------------------------------
     5 (A) A              23 (A) A                -0.6114
     5 (A) B              23 (A) B                 0.6111
    ------------------------------------------------------
  ----------------------------------------------------------------------------


  Excited state  4 (A)                                             [converged]
  ----------------------------------------------------------------------------
  Term symbol:  5 (-) A                                     R^2 =  4.68344e-14

  Total energy:                                           -424.6987079267 a.u.
  Excitation energy:                                             305.012813 eV

  Osc. strength:                                                      0.005499
  Trans. dip. moment [a.u.]:           [   0.008444,    0.023871,   -0.009738]
  <i|r^2|0> [a.u.]:                    [  -0.028190,    0.254046,   -0.003385]

  V1^2 = 0.9183, V2^2 = 0.0817

  Important amplitudes:
     core i     occ j      vir a      vir b          v   
    ------------------------------------------------------
     5 (A) B              23 (A) B                -0.6455
     5 (A) A              23 (A) A                -0.6452
    ------------------------------------------------------
  ----------------------------------------------------------------------------


  Excited state  5 (A)                                             [converged]
  ----------------------------------------------------------------------------
  Term symbol:  6 (-) A                                     R^2 =  3.58935e-14

  Total energy:                                           -424.6626831814 a.u.
  Excitation energy:                                             305.993097 eV

  Osc. strength:                                                      0.000000
  Trans. dip. moment [a.u.]:           [   0.000002,   -0.000000,    0.000001]
  <i|r^2|0> [a.u.]:                    [  -0.000003,   -0.000006,   -0.000001]

  V1^2 = 0.9535, V2^2 = 0.0465

  Important amplitudes:
     core i     occ j      vir a      vir b          v   
    ------------------------------------------------------
     5 (A) B              27 (A) B                 0.5206
     5 (A) A              27 (A) A                -0.5205
    ------------------------------------------------------
  ----------------------------------------------------------------------------


  Excited state  6 (A)                                             [converged]
  ----------------------------------------------------------------------------
  Term symbol:  7 (-) A                                     R^2 =  6.35322e-14

  Total energy:                                           -424.6582177691 a.u.
  Excitation energy:                                             306.114607 eV

  Osc. strength:                                                      0.000000
  Trans. dip. moment [a.u.]:           [  -0.000004,    0.000001,   -0.000004]
  <i|r^2|0> [a.u.]:                    [   0.000006,    0.000007,    0.000004]

  V1^2 = 0.9534, V2^2 = 0.0466

  Important amplitudes:
     core i     occ j      vir a      vir b          v   
    ------------------------------------------------------
     5 (A) B              28 (A) B                -0.5110
     5 (A) A              28 (A) A                 0.5107
    ------------------------------------------------------
  ----------------------------------------------------------------------------


  Excited state  7 (A)                                             [converged]
  ----------------------------------------------------------------------------
  Term symbol:  8 (-) A                                     R^2 =  2.74175e-14

  Total energy:                                           -424.5973532145 a.u.
  Excitation energy:                                             307.770815 eV

  Osc. strength:                                                      0.000161
  Trans. dip. moment [a.u.]:           [   0.003663,   -0.000586,    0.002752]
  <i|r^2|0> [a.u.]:                    [  -0.006067,   -0.006913,   -0.002778]

  V1^2 = 0.8512, V2^2 = 0.1488

  Important amplitudes:
     core i     occ j      vir a      vir b          v   
    ------------------------------------------------------
     5 (A) B              22 (A) B                 0.9205
     5 (A) B   13 (A) A   22 (A) A   22 (A) B     -0.0745
    ------------------------------------------------------
  ----------------------------------------------------------------------------


  Excited state  8 (A)                                             [converged]
  ----------------------------------------------------------------------------
  Term symbol:  9 (-) A                                     R^2 =  4.57503e-14

  Total energy:                                           -424.5823807297 a.u.
  Excitation energy:                                             308.178237 eV

  Osc. strength:                                                      0.118991
  Trans. dip. moment [a.u.]:           [   0.103563,   -0.055560,   -0.044133]
  <i|r^2|0> [a.u.]:                    [  -0.171362,   -0.651125,    0.053999]

  V1^2 = 0.9441, V2^2 = 0.0559

  Important amplitudes:
     core i     occ j      vir a      vir b          v   
    ------------------------------------------------------
     5 (A) B              24 (A) B                 0.4997
     5 (A) A              24 (A) A                 0.4988
    ------------------------------------------------------
  ----------------------------------------------------------------------------


  Excited state  9 (A)                                             [converged]
  ----------------------------------------------------------------------------
  Term symbol:  10 (-) A                                    R^2 =  6.74432e-14

  Total energy:                                           -424.5781320275 a.u.
  Excitation energy:                                             308.293850 eV

  Osc. strength:                                                      0.118124
  Trans. dip. moment [a.u.]:           [  -0.055319,   -0.014990,   -0.111150]
  <i|r^2|0> [a.u.]:                    [   0.091849,   -0.174154,    0.117607]

  V1^2 = 0.9437, V2^2 = 0.0563

  Important amplitudes:
     core i     occ j      vir a      vir b          v   
    ------------------------------------------------------
     5 (A) B              25 (A) B                -0.4979
     5 (A) A              25 (A) A                -0.4967
    ------------------------------------------------------
  ----------------------------------------------------------------------------


  Excited state 10 (A)                                             [converged]
  ----------------------------------------------------------------------------
  Term symbol:  11 (-) A                                    R^2 =  1.42828e-13

  Total energy:                                           -424.3875925223 a.u.
  Excitation energy:                                             313.478694 eV

  Osc. strength:                                                      0.000000
  Trans. dip. moment [a.u.]:           [   0.000063,    0.000161,   -0.000057]
  <i|r^2|0> [a.u.]:                    [  -0.000109,    0.001879,    0.000054]

  V1^2 = 0.9157, V2^2 = 0.0843

  Important amplitudes:
     core i     occ j      vir a      vir b          v   
    ------------------------------------------------------
     5 (A) A              26 (A) A                -0.5504
     5 (A) B              26 (A) B                 0.5480
    ------------------------------------------------------
  ----------------------------------------------------------------------------


  Excited state 11 (A)                                             [converged]
  ----------------------------------------------------------------------------
  Term symbol:  12 (-) A                                    R^2 =  3.03134e-13

  Total energy:                                           -424.3745855526 a.u.
  Excitation energy:                                             313.832632 eV

  Osc. strength:                                                      0.000004
  Trans. dip. moment [a.u.]:           [  -0.000260,   -0.000672,    0.000235]
  <i|r^2|0> [a.u.]:                    [   0.000433,   -0.007845,   -0.000243]

  V1^2 = 0.9116, V2^2 = 0.0884

  Important amplitudes:
     core i     occ j      vir a      vir b          v   
    ------------------------------------------------------
     5 (A) A              29 (A) A                 0.5082
     5 (A) B              29 (A) B                -0.5074
    ------------------------------------------------------
  ----------------------------------------------------------------------------


  Excited state 12 (A)                                             [converged]
  ----------------------------------------------------------------------------
  Term symbol:  13 (-) A                                    R^2 =  1.70394e-13

  Total energy:                                           -424.3584557293 a.u.
  Excitation energy:                                             314.271547 eV

  Osc. strength:                                                      0.041941
  Trans. dip. moment [a.u.]:           [  -0.026027,   -0.065586,    0.021638]
  <i|r^2|0> [a.u.]:                    [   0.038947,   -0.771043,   -0.026560]

  V1^2 = 0.9114, V2^2 = 0.0886

  Important amplitudes:
     core i     occ j      vir a      vir b          v   
    ------------------------------------------------------
     5 (A) B              26 (A) B                 0.6606
     5 (A) A              26 (A) A                 0.6510
    ------------------------------------------------------
  ----------------------------------------------------------------------------


  Excited state 13 (A)                                             [converged]
  ----------------------------------------------------------------------------
  Term symbol:  14 (-) A                                    R^2 =  1.67564e-13

  Total energy:                                           -424.3343014912 a.u.
  Excitation energy:                                             314.928817 eV

  Osc. strength:                                                      0.000000
  Trans. dip. moment [a.u.]:           [   0.000091,   -0.000000,    0.000074]
  <i|r^2|0> [a.u.]:                    [  -0.000146,    0.000002,   -0.000074]

  V1^2 = 0.8963, V2^2 = 0.1037

  Important amplitudes:
     core i     occ j      vir a      vir b          v   
    ------------------------------------------------------
     5 (A) A              24 (A) A                -0.4947
     5 (A) B              24 (A) B                 0.4897
    ------------------------------------------------------
  ----------------------------------------------------------------------------


  Excited state 14 (A)                                             [converged]
  ----------------------------------------------------------------------------
  Term symbol:  15 (-) A                                    R^2 =  2.22977e-13

  Total energy:                                           -424.3340030507 a.u.
  Excitation energy:                                             314.936938 eV

  Osc. strength:                                                      0.000000
  Trans. dip. moment [a.u.]:           [   0.000130,    0.000021,    0.000096]
  <i|r^2|0> [a.u.]:                    [  -0.000201,    0.000258,   -0.000089]

  V1^2 = 0.8964, V2^2 = 0.1036

  Important amplitudes:
     core i     occ j      vir a      vir b          v   
    ------------------------------------------------------
     5 (A) A              25 (A) A                -0.4979
     5 (A) B              25 (A) B                 0.4916
    ------------------------------------------------------
  ----------------------------------------------------------------------------


  Excited state 15 (A)                                             [converged]
  ----------------------------------------------------------------------------
  Term symbol:  16 (-) A                                    R^2 =  2.53606e-13

  Total energy:                                           -424.3200672839 a.u.
  Excitation energy:                                             315.316149 eV

  Osc. strength:                                                      0.029368
  Trans. dip. moment [a.u.]:           [   0.053640,   -0.026306,   -0.015242]
  <i|r^2|0> [a.u.]:                    [  -0.088006,   -0.307762,    0.018333]

  V1^2 = 0.9000, V2^2 = 0.1000

  Important amplitudes:
     core i     occ j      vir a      vir b          v   
    ------------------------------------------------------
     5 (A) B              27 (A) B                 0.4957
     5 (A) A              27 (A) A                 0.4953
    ------------------------------------------------------
  ----------------------------------------------------------------------------


  Excited state 16 (A)                                             [converged]
  ----------------------------------------------------------------------------
  Term symbol:  17 (-) A                                    R^2 =  4.21629e-13

  Total energy:                                           -424.3194461522 a.u.
  Excitation energy:                                             315.333051 eV

  Osc. strength:                                                      0.030085
  Trans. dip. moment [a.u.]:           [  -0.021684,   -0.010453,   -0.057574]
  <i|r^2|0> [a.u.]:                    [   0.035212,   -0.122329,    0.061320]

  V1^2 = 0.9003, V2^2 = 0.0997

  Important amplitudes:
     core i     occ j      vir a      vir b          v   
    ------------------------------------------------------
     5 (A) B              28 (A) B                -0.4877
     5 (A) A              28 (A) A                -0.4854
    ------------------------------------------------------
  ----------------------------------------------------------------------------


  Excited state 17 (A)                                             [converged]
  ----------------------------------------------------------------------------
  Term symbol:  18 (-) A                                    R^2 =  5.25406e-13

  Total energy:                                           -424.3114409652 a.u.
  Excitation energy:                                             315.550883 eV

  Osc. strength:                                                      0.000116
  Trans. dip. moment [a.u.]:           [   0.002010,    0.003225,    0.000779]
  <i|r^2|0> [a.u.]:                    [  -0.029017,    0.009980,   -0.026352]

  V1^2 = 0.9177, V2^2 = 0.0823

  Important amplitudes:
     core i     occ j      vir a      vir b          v   
    ------------------------------------------------------
     5 (A) B              29 (A) B                -0.6446
     5 (A) A              29 (A) A                -0.6429
    ------------------------------------------------------
  ----------------------------------------------------------------------------


  Excited state 18 (A)                                         [not converged]
  ----------------------------------------------------------------------------
  Term symbol:  19 (-) A                                    R^2 =  1.09909e-05

  Total energy:                                           -423.6856276790 a.u.
  Excitation energy:                                             332.580129 eV


  V1^2 = 0.8713, V2^2 = 0.1287

  Important amplitudes:
     core i     occ j      vir a      vir b          v   
    ------------------------------------------------------
     5 (A) A              32 (A) A                 0.6251
     5 (A) B              32 (A) B                 0.6225
    ------------------------------------------------------
  ----------------------------------------------------------------------------


  Excited state 19 (A)                                         [not converged]
  ----------------------------------------------------------------------------
  Term symbol:  20 (-) A                                    R^2 =  5.84453e-04

  Total energy:                                           -423.6833579214 a.u.
  Excitation energy:                                             332.641892 eV


  V1^2 = 0.8709, V2^2 = 0.1291

  Important amplitudes:
     core i     occ j      vir a      vir b          v   
    ------------------------------------------------------
     5 (A) A              33 (A) A                -0.6671
     5 (A) B              33 (A) B                 0.6361
    ------------------------------------------------------
  ----------------------------------------------------------------------------


  Excited state 20 (A)                                         [not converged]
  ----------------------------------------------------------------------------
  Term symbol:  21 (-) A                                    R^2 =  7.14535e-05

  Total energy:                                           -423.6787488366 a.u.
  Excitation energy:                                             332.767312 eV


  V1^2 = 0.8699, V2^2 = 0.1301

  Important amplitudes:
     core i     occ j      vir a      vir b          v   
    ------------------------------------------------------
     5 (A) A              32 (A) A                -0.6222
     5 (A) B              32 (A) B                 0.6197
    ------------------------------------------------------
  ----------------------------------------------------------------------------


--------------------------------------------------------------------------------
  Time of ADC calculation:  CPU 1266.92 s  wall 1298.88 s
================================================================================
 
 --------------------------------------------------------------
 
                    Orbital Energies (a.u.)
 --------------------------------------------------------------
 
 Alpha MOs
 -- Occupied --
-26.751 -26.749 -26.749 -26.550 -11.951  -2.185  -2.076  -2.073
 -1.802  -1.329  -1.251  -1.251  -1.199  -1.078  -1.078  -1.051
 -1.049  -1.025  -0.970  -0.864  -0.862
 -- Virtual --
 -0.199   0.017   0.207   0.208   0.330   0.417   0.421   0.431
  0.926   1.002   1.008   1.009   1.124   1.125   1.219   1.265
  1.266   1.270   1.284   1.285   1.290   1.306   1.340   1.418
  1.639   1.639   1.747   1.748   1.780   1.873   1.891   1.895
  1.907   1.913   1.916   1.966   1.970   1.970   1.974   2.073
  2.080   2.320   2.688   2.692   3.019   3.025   3.229   3.238
  3.240   3.566   4.184   4.680   4.853   4.866
 
 Beta MOs
 -- Occupied --
-26.751 -26.749 -26.749 -26.502 -11.951  -2.185  -2.076  -2.073
 -1.610  -1.329  -1.251  -1.251  -1.199  -1.078  -1.078  -1.051
 -1.049  -1.025  -0.812  -0.810
 -- Virtual --
 -0.199  -0.052   0.017   0.207   0.208   0.330   0.417   0.421
  0.432   0.957   1.002   1.008   1.009   1.124   1.125   1.266
  1.266   1.285   1.285   1.291   1.306   1.314   1.340   1.421
  1.443   1.639   1.639   1.747   1.748   1.780   1.884   1.895
  1.897   1.970   1.970   1.973   1.979   2.000   2.002   2.014
  2.073   2.081   2.320   2.688   2.692   3.019   3.025   3.230
  3.238   3.240   3.607   4.184   4.680   4.853   4.866
 --------------------------------------------------------------
 
          Ground-State Mulliken Net Atomic Charges

     Atom                 Charge (a.u.)    Spin (a.u.)
  --------------------------------------------------------
      1 C                     1.212624      -0.000430
      2 F                    -0.074159       0.000028
      3 F                    -0.073550       0.000029
      4 F                     0.002710       1.000351
      5 F                    -0.067625       0.000023
  --------------------------------------------------------
  Sum of atomic charges =     1.000000
  Sum of spin   charges =     1.000000

 -----------------------------------------------------------------
                    Cartesian Multipole Moments
 -----------------------------------------------------------------
    Charge (ESU x 10^10)
                 4.8032
    Dipole Moment (Debye)
         X      -2.0475      Y      14.8810      Z      -1.4048
       Tot      15.0867
    Quadrupole Moments (Debye-Ang)
        XX     -19.5463     XY      -5.9976     YY      26.0037
        XZ       0.8951     YZ      -4.7093     ZZ     -20.1282
    Octopole Moments (Debye-Ang^2)
       XXX      42.1188    XXY     -46.9135    XYY      -3.8549
       YYY       1.8213    XXZ      -0.9587    XYZ       1.5333
       YYZ     -14.9255    XZZ      14.0235    YZZ     -47.4968
       ZZZ       0.2748
    Hexadecapole Moments (Debye-Ang^3)
      XXXX    -143.3672   XXXY      74.0756   XXYY    -172.9575
      XYYY      16.1288   YYYY    -449.0010   XXXZ      13.6395
      XXYZ      11.2556   XYYZ       7.7835   YYYZ     -13.7973
      XXZZ     -40.7886   XYZZ      21.7726   YYZZ    -164.0437
      XZZZ      13.2215   YZZZ      32.8553   ZZZZ     -91.2945
 -----------------------------------------------------------------
Archival summary:
1\1\tp-linux1\SP\HF\6-31G*\41(1+,2)\thomas\WedMar2220:50:512017WedMar2220:50:512017\0\\#,HF,6-31G*,\\1,2\C\F,1,1.2032\F,1,1.20818,2,119.414\F,1,1.20846,2,119.409,3,-163.974,0\F,1,3.63582,2,88.8044,3,-82.1302,0\\HF=-435.170749\\@

 Total job time:  1305.27s(wall), 1271.78s(cpu) 
 Wed Mar 22 20:50:51 2017

        *************************************************************
        *                                                           *
        *  Thank you very much for using Q-Chem.  Have a nice day.  *
        *                                                           *
        *************************************************************


0 sent ACK to 0 
now end server 0 ... 
cleanup process ... done
