
Running Job 1 of 1 ddtraj1t6.inp
qchem ddtraj1t6.inp_25471.0 /scratch/qchem/qchem25471/ 1
/mnt/software/qchem/bin/mpi/mpirun_qchem -machinefile /mnt/software/qchem/bin/mpi/machines -np 1 /mnt/software/qchem/exe/qcprog.exe ddtraj1t6.inp_25471.0 /scratch/qchem/qchem25471/

Process 0 of 1 is on tp-linux1 - thread support 0
initial socket setup ...start
initial socket setup ...done 
now start server 0 ... 

cmd = ssh tp-linux1 /mnt/software/qchem/bin/get_hostid 1961444449 > /scratch/qchem/qchem25471/lic.dat
                  Welcome to Q-Chem
     A Quantum Leap Into The Future Of Chemistry


 Q-Chem 4.3, Q-Chem, Inc., Pleasanton, CA (2015)

 Y. Shao,  Z. Gan,  E. Epifanovsky,  A. T. B. Gilbert,  M. Wormit,  
 J. Kussmann,  A. W. Lange,  A. Behn,  J. Deng,  X. Feng,  D. Ghosh,  
 M. Goldey,  P. R. Horn,  L. D. Jacobson,  I. Kaliman,  R. Z. Khaliullin,  
 T. Kus,  A. Landau,  J. Liu,  E. I. Proynov,  Y. M. Rhee,  R. M. Richard,  
 M. A. Rohrdanz,  R. P. Steele,  E. J. Sundstrom,  H. L. Woodcock III,  
 P. M. Zimmerman,  D. Zuev,  B. Albrecht,  E. Alguire,  B. Austin,  
 S. A. Baeppler,  G. J. O. Beran,  Y. A. Bernard,  E. Berquist,  
 K. Brandhorst,  K. B. Bravaya,  S. T. Brown,  D. Casanova,  C.-M. Chang,  
 Y. Chen,  S. H. Chien,  K. D. Closser,  D. L. Crittenden,  M. Diedenhofen,  
 R. A. DiStasio Jr.,  H. Do,  A. D. Dutoi,  R. G. Edgar,  P.-T. Fang,  
 S. Fatehi,  Q. Feng,  L. Fusti-Molnar,  A. Ghysels,  
 A. Golubeva-Zadorozhnaya,  J. Gomes,  A. Gunina,  M. W. D. Hanson-Heine,  
 P. H. P. Harbach,  A. W. Hauser,  E. G. Hohenstein,  Z. C. Holden,  K. Hui,  
 T.-C. Jagau,  H. Ji,  B. Kaduk,  K. Khistyaev,  Jaehoon Kim,  Jihan Kim,  
 R. A. King,  P. Klunzinger,  D. Kosenkov,  T. Kowalczyk,  C. M. Krauter,  
 K. U. Lao,  A. Laurent,  K. V. Lawler,  S. Lehtola,  S. V. Levchenko,  
 C. Y. Lin,  Y.-S. Lin,  F. Liu,  E. Livshits,  R. C. Lochan,  A. Luenser,  
 P. Manohar,  S. F. Manzer,  S.-P. Mao,  N. Mardirossian,  A. V. Marenich,  
 L. A. Martinez-Martinez,  S. A. Maurer,  N. J. Mayhall,  K. Nanda,  
 C. M. Oana,  R. Olivares-Amaya,  D. P. O'Neill,  J. A. Parkhill,  
 T. M. Perrine,  R. Peverati,  P. A. Pieniazek,  F. Plasser,  A. Prociuk,  
 D. R. Rehn,  E. Rosta,  N. J. Russ,  N. Sergueev,  S. M. Sharada,  
 S. Sharma,  D. W. Small,  A. Sodt,  T. Stauch,  T. Stein,  D. Stuck,  
 Y.-C. Su,  A. J. W. Thom,  T. Tsuchimochi,  L. Vogt,  O. Vydrov,  T. Wang,  
 M. A. Watson,  J. Wenzel,  A. White,  C. F. Williams,  V. Vanovschi,  
 S. Yeganeh,  S. R. Yost,  Z.-Q. You,  I. Y. Zhang,  X. Zhang,  Y. Zhao,  
 B. R. Brooks,  G. K. L. Chan,  D. M. Chipman,  C. J. Cramer,  
 W. A. Goddard III,  M. S. Gordon,  W. J. Hehre,  A. Klamt,  
 H. F. Schaefer III,  M. W. Schmidt,  C. D. Sherrill,  D. G. Truhlar,  
 A. Warshel,  X. Xu,  A. Aspuru-Guzik,  R. Baer,  A. T. Bell,  N. A. Besley,  
 J.-D. Chai,  A. Dreuw,  B. D. Dunietz,  T. R. Furlani,  S. R. Gwaltney,  
 C.-P. Hsu,  Y. Jung,  J. Kong,  D. S. Lambrecht,  W. Liang,  C. Ochsenfeld,  
 V. A. Rassolov,  L. V. Slipchenko,  J. E. Subotnik,  T. Van Voorhis,  
 J. M. Herbert,  A. I. Krylov,  P. M. W. Gill,  M. Head-Gordon

 Contributors to earlier versions of Q-Chem not listed above: 
 R. D. Adamson,  J. Baker,  E. F. C. Byrd,  A. K. Chakraborty,  C.-L. Cheng,  
 H. Dachsel,  R. J. Doerksen,  G. Hawkins,  A. Heyden,  S. Hirata,  
 G. Kedziora,  F. J. Keil,  C. Kelley,  P. P. Korambath,  W. Kurlancheek,  
 A. M. Lee,  M. S. Lee,  D. Liotard,  I. Lotan,  P. E. Maslen,  N. Nair,  
 D. Neuhauser,  R. Olson,  B. Peters,  J. Ritchie,  N. E. Schultz,  
 N. Shenvi,  A. C. Simmonett,  K. S. Thanthiriwatte,  Q. Wu,  W. Zhang

 Please cite Q-Chem as follows:
 Y. Shao et al., Mol. Phys. 113, 184-215 (2015)
 DOI: 10.1080/00268976.2014.952696

 Q-Chem 4.3.0 for Intel X86 Linux

 Parts of Q-Chem use Armadillo 5.200.1 (Boston Tea Smuggler).
 http://arma.sourceforge.net/

 Q-Chem begins on Wed Mar 22 12:58:28 2017  

Host: 
0

     Scratch files written to /scratch/qchem/qchem25471//
 Nov1815 1189b_ 19540  19532 5443   
 Parallel job on  1  processors
Processing $rem in /mnt/software/qchem/config/preferences.
 MEM_TOTAL  2000 

Checking the input file for inconsistencies... 	...done.

--------------------------------------------------------------
User input:
--------------------------------------------------------------
$comment
XAS calculation for valence excited states for CF4+ using cvs-adc(2) + 6-31G* basis set
job 1 - determination of HF orbitals
$end

$molecule
1 2
6  -0.647554  2.494822  -0.059121
9  0.589703  2.336632  0.004123
9  -1.135901  3.274315  0.785067
9  -1.150354  1.147374  0.446266
9  -1.133509  2.548687  -1.198113
$end

$comment
cvs-adc(2) calculation
$end

$rem
mem_total 3000
mem_static 1500
sym_ignore true
method cvs-adc(2)
basis 6-31G*
ee_singlets 20
cc_rest_occ 5                  !only excitations from the lowest N orbitals
unrestricted  true
max_scf_cycles 200
SCF_ALGORITHM = DIIS_GDM
SCF_CONVERGENCE = 7
THRESH = 10
$end
--------------------------------------------------------------
 ----------------------------------------------------------------
             Standard Nuclear Orientation (Angstroms)
    I     Atom           X                Y                Z
 ----------------------------------------------------------------
    1      C      -0.6475540000     2.4948220000    -0.0591210000
    2      F       0.5897030000     2.3366320000     0.0041230000
    3      F      -1.1359010000     3.2743150000     0.7850670000
    4      F      -1.1503540000     1.1473740000     0.4462660000
    5      F      -1.1335090000     2.5486870000    -1.1981130000
 ----------------------------------------------------------------
 Nuclear Repulsion Energy =   208.0868328702 hartrees
 There are       21 alpha and       20 beta electrons
 Requested basis set is 6-31G(d)
 There are 20 shells and 75 basis functions

 Total QAlloc Memory Limit   3000 MB
 Mega-Array Size      1467 MB
 MEM_STATIC part      1500 MB

                       Distance Matrix (Angstroms)
             C (  1)   F (  2)   F (  3)   F (  4)
   F (  2)  1.248931
   F (  3)  1.248497  2.113488
   F (  4)  1.524415  2.153514  2.153804
   F (  5)  1.239498  2.111823  2.111763  2.160543
 
 tim1(1): 
  0.000000000000000E+000
 tim1(2): 
  0.000000000000000E+000
 A cutoff of  1.0D-10 yielded    204 shell pairs
 There are      2979 function pairs
 
 -------------------------------------------------------
 OpenMP Integral Computing Module                       
 Release: version 1.0, May 2013, Q-Chem Inc. Pittsburgh 
 -------------------------------------------------------
 Integral Job Info:
 Integral job number is                      11
 Integral operator is                         1
 short-range coefficients                     0
 long-range coefficients              100000000
 Omega coefficients                           0
 if combine SR and LR in K                    0
 Integral screening is                        0
 Integral computing path is                   2
 max size of driver memory is            800000
 size of driver memory is                593474
 size of scratch memory is              2260544
 max col of scratch BK array               1296
 max len of scratch array in speh3          155
 max len of scratch index in speh4           18
 max int batch size is                      520
 min int batch size is                       52
 fixed nKL is                                52
 max L of basis functions is                  2
 order of int derivative is                   0
 number of shells is                         20
 number of basis is                          75
 number of cartesian basis is                75
 number of contracted shell pairs           204
 number of primitive shell pairs           1065
 maxK2 (contraction) of shell pair           36
 max number of K2 of shell pair               1
 max number of CS2 of shell pair             37
 max number of PS2 of shell pair            222
 mem total for path MDJ                   21832
 -------------------------------------------------------
 Smallest overlap matrix eigenvalue = 1.70E-03

 Scale SEOQF with 1.000000e+00/1.000000e-01/1.000000e+00

 Standard Electronic Orientation quadrupole field applied
 Nucleus-field energy     =     0.0000000109 hartrees
 Guess from superposition of atomic densities
 Warning:  Energy on first SCF cycle will be non-variational
 An unrestricted Hartree-Fock SCF calculation will be
 performed using Pulay DIIS + Geometric Direct Minimization
 SCF converges when RMS gradient is below 1.0E-07
 ---------------------------------------
  Cycle       Energy         DIIS Error
 ---------------------------------------
    1    -436.6524080693      9.16E-02
    2    -434.8729817239      1.86E-02
    3    -435.0773679016      8.12E-03 Done DIIS. Switching to GDM
    4    -435.1208828937      6.70E-02 Normal BFGS step
    5    -435.1286643424      3.93E-02 Normal BFGS step
    6    -435.1309522694      6.63E-03 Normal BFGS step
    7    -435.1311387115      2.91E-03 Normal BFGS step
    8    -435.1312005544      2.59E-03 Normal BFGS step
    9    -435.1312274331      2.00E-03 Normal BFGS step
   10    -435.1312474124      1.44E-03 Normal BFGS step
   11    -435.1312681994      1.22E-03 Normal BFGS step
   12    -435.1312803946      8.17E-04 Normal BFGS step
   13    -435.1312848762      2.79E-04 Normal BFGS step
   14    -435.1312857772      1.66E-04 Normal BFGS step
   15    -435.1312859552      1.34E-04 Normal BFGS step
   16    -435.1312860171      1.35E-04 Normal BFGS step
   17    -435.1312860880      1.36E-04 Normal BFGS step
   18    -435.1312862280      1.37E-04 Normal BFGS step
   19    -435.1312865743      1.51E-04 Normal BFGS step
   20    -435.1312874543      2.35E-04 Normal BFGS step
   21    -435.1312897834      4.29E-04 Normal BFGS step
   22    -435.1312958110      7.64E-04 Normal BFGS step
   23    -435.1313035876      1.46E-03 Normal BFGS step
   24    -435.1313195235      1.02E-03 Dog-leg BFGS step
   25    -435.1313532425      3.61E-03 Normal BFGS step
   26    -435.1313725226      1.21E-03 Normal BFGS step
   27    -435.1314022423      5.26E-04 Normal BFGS step
   28    -435.1314099760      2.32E-03 Normal BFGS step
   29    -435.1314239284      1.21E-03 Normal BFGS step
   30    -435.1314445033      5.20E-04 Normal BFGS step
   31    -435.1314662291      1.97E-03 Normal BFGS step
   32    -435.1314789227      2.86E-04 Normal BFGS step
   33    -435.1314900079      4.52E-04 Normal BFGS step
   34    -435.1314752491      3.03E-03 Line search: overstep
   35    -435.1314992591      7.87E-04 Normal BFGS step
   36    -435.1315073461      9.27E-04 Normal BFGS step
   37    -435.1315156012      1.93E-04 Normal BFGS step
   38    -435.1315188750      5.05E-04 Normal BFGS step
   39    -435.1315207913      1.19E-04 Normal BFGS step
   40    -435.1315213269      1.24E-04 Normal BFGS step
   41    -435.1315214283      4.87E-05 Normal BFGS step
   42    -435.1315214542      4.96E-05 Normal BFGS step
   43    -435.1315214629      4.17E-05 Normal BFGS step
   44    -435.1315214775      2.25E-05 Normal BFGS step
   45    -435.1315214833      1.19E-05 Normal BFGS step
   46    -435.1315214879      5.15E-06 Normal BFGS step
   47    -435.1315214886      2.53E-06 Normal BFGS step
   48    -435.1315214887      1.56E-06 Normal BFGS step
   49    -435.1315214888      3.60E-07 Normal BFGS step
   50    -435.1315214888      1.08E-07 Normal BFGS step
   51    -435.1315214888      4.70E-08 Convergence criterion met
 ---------------------------------------
 <S^2> = 0.7547
 SCF time:  CPU 6.83 s  wall 9.86 s
 SCF   energy in the final basis set = -435.1315214888
 Total energy in the final basis set = -435.1315214888
================================================================================
|                                                                              |
|                                 A D C  M A N                                 |
|                                                                              |
 ------------------------------------------------------------------------------ 
|                                                                              |
| Components:                                                                  |
|                                                                              |
| - libvmm - 1.2-release                                                       |
|   Authors:                                                                   |
|   Evgeny Epifanovsky, Ilya Kaliman                                           |
|                                                                              |
| - libtensor - 2.4-trunk                                                      |
|   Authors:                                                                   |
|   Evgeny Epifanovsky, Michael Wormit, Dmitry Zuev, Sam Manzer                |
|                                                                              |
| - libwfa - 1.1-beta                                                          |
|   Authors:                                                                   |
|   Felix Plasser, Stefanie Baeppler, Benjamin Thomitzni, Michael Wormit       |
|                                                                              |
| - libadc - 1.0-beta                                                          |
|   Authors:                                                                   |
|   Michael Wormit, Philipp H. P. Harbach, Caroline Krauter, Dirk Rehn,        |
|   Matthias Schneider, Jan Wenzel                                             |
|                                                                              |
| - adcman - 2.4-beta                                                          |
|   Authors:                                                                   |
|   Michael Wormit, Philipp H. P. Harbach, Caroline Krauter, Dirk Rehn,        |
|   Jan Wenzel, Andreas Dreuw                                                  |
|                                                                              |
| Authors of earlier versions of ADCMAN:                                       |
| Andreas Dreuw, Jan Hendrik Starcke, Dirk Rehn, Michael Wormit                |
|                                                                              |
================================================================================

 
 Alpha MOs, Unrestricted
 -- Occupied --                  
-26.885 -26.692 -26.691 -26.689 -11.932  -2.184  -2.088  -2.011
  1 A     2 A     3 A     4 A     5 A     6 A     7 A     8 A                  
 -2.010  -1.339  -1.301  -1.237  -1.219  -1.184  -1.158  -1.045
  9 A    10 A    11 A    12 A    13 A    14 A    15 A    16 A                  
 -1.032  -1.032  -1.002  -0.998  -0.975
 17 A    18 A    19 A    20 A    21 A                                          
 -- Virtual --                   
 -0.061   0.127   0.185   0.198   0.370   0.411   0.420   0.429
 22 A    23 A    24 A    25 A    26 A    27 A    28 A    29 A                  
  0.920   0.953   0.963   1.036   1.037   1.094   1.218   1.257
 30 A    31 A    32 A    33 A    34 A    35 A    36 A    37 A                  
  1.292   1.296   1.332   1.334   1.340   1.370   1.425   1.541
 38 A    39 A    40 A    41 A    42 A    43 A    44 A    45 A                  
  1.546   1.709   1.715   1.732   1.807   1.807   1.808   1.951
 46 A    47 A    48 A    49 A    50 A    51 A    52 A    53 A                  
  1.964   1.994   1.997   2.023   2.037   2.056   2.092   2.220
 54 A    55 A    56 A    57 A    58 A    59 A    60 A    61 A                  
  2.453   2.665   2.687   2.880   2.941   2.950   3.202   3.203
 62 A    63 A    64 A    65 A    66 A    67 A    68 A    69 A                  
  3.259   4.020   4.409   4.717   4.752   6.061
 70 A    71 A    72 A    73 A    74 A    75 A                                  
 
 Beta MOs, Unrestricted
 -- Occupied --                  
-26.833 -26.691 -26.691 -26.689 -11.932  -2.133  -2.011  -2.008
  1 A     2 A     3 A     4 A     5 A     6 A     7 A     8 A                  
 -1.949  -1.318  -1.220  -1.206  -1.193  -1.121  -1.033  -1.030
  9 A    10 A    11 A    12 A    13 A    14 A    15 A    16 A                  
 -1.017  -1.004  -0.996  -0.974
 17 A    18 A    19 A    20 A                                                  
 -- Virtual --                   
 -0.351  -0.048   0.130   0.199   0.209   0.377   0.417   0.421
 21 A    22 A    23 A    24 A    25 A    26 A    27 A    28 A                  
  0.429   0.963   0.983   1.009   1.037   1.038   1.101   1.265
 29 A    30 A    31 A    32 A    33 A    34 A    35 A    36 A                  
  1.281   1.301   1.329   1.333   1.340   1.357   1.379   1.434
 37 A    38 A    39 A    40 A    41 A    42 A    43 A    44 A                  
  1.577   1.582   1.735   1.749   1.753   1.808   1.813   1.814
 45 A    46 A    47 A    48 A    49 A    50 A    51 A    52 A                  
  1.974   1.979   1.998   1.998   2.033   2.060   2.076   2.092
 53 A    54 A    55 A    56 A    57 A    58 A    59 A    60 A                  
  2.228   2.462   2.671   2.688   2.899   2.942   2.950   3.202
 61 A    62 A    63 A    64 A    65 A    66 A    67 A    68 A                  
  3.204   3.261   4.043   4.412   4.719   4.753   6.064
 69 A    70 A    71 A    72 A    73 A    74 A    75 A                          
 

--------------------------------------------------------------------------------
                                   HF Summary                                   
--------------------------------------------------------------------------------
  Energy:                                                 -435.1315214888 a.u.
  Dip. moment [a.u.]:                  [ -53.907029,  182.773073,   -0.257515]
  Total dipole [Debye]:                                             484.348074
  <r^2> [a.u.]:                        [ 158.685726,  904.329535,   88.373144]
  Total <r^2> [a.u.]:                                              1151.388404
--------------------------------------------------------------------------------

--------------------------------------------------------------------------------
                                 MP(2) Summary                                  
--------------------------------------------------------------------------------
  Energy contribution:                                      -0.7472782604 a.u.
  Total energy:                                           -435.8787997492 a.u.
  Dip. moment [a.u.]:                  [ -53.931395,  182.720926,   -0.247385]
  Total dipole [Debye]:                                             484.238440
  <r^2> [a.u.]:                        [ 158.564693,  903.884494,   88.205571]
  Total <r^2> [a.u.]:                                              1150.654757
--------------------------------------------------------------------------------
  Starting Davidson ... 
--------------------------------------------------------------------------------
   It NVec Conv  Avg. Norm  Max. Norm  Conv. states           Remark
--------------------------------------------------------------------------------
        20    0  2.110e-01  1.136e+00 11.0551 n n n n n n n n Guess.
    1   40    0  3.641e-02  4.687e-01 10.8305 n n n n n n n n 
    2   60    0  6.851e-03  6.539e-02 10.8253 n n n n n n n n 
    3   80    0  2.208e-03  2.402e-02 10.8247 n n n n n n n n 
    4  100    0  1.014e-03  1.421e-02 10.8247 n n n n n n n n 
    5   40    0  8.372e-04  1.065e-02 10.8247 n n n n n n n n Subspace collapsed.
    6   60    0  5.943e-04  9.306e-03 10.8247 n n n n n n n n 
    7   80    0  3.606e-04  4.838e-03 10.8247 n n n n n n n n 
    8  100    2  1.706e-04  2.160e-03 10.8247 n y y n n n n n 
    9   40    5  8.527e-05  1.131e-03 10.8247 y y y n n n n y Subspace collapsed.
   10   60    6  4.406e-05  5.408e-04 10.8247 y y y y n n n y 
   11   80   10  2.844e-05  3.838e-04 10.8247 y y y y y y y y 
   12  100   13  2.292e-05  3.481e-04 10.8247 y y y y y y y y 
   13   40   17  1.391e-05  1.876e-04 10.8247 y y y y y y y y Subspace collapsed.
   14   60   17  1.309e-05  1.970e-04 10.8247 y y y y y y y y 
   15   80   17  9.327e-06  1.364e-04 10.8247 y y y y y y y y 
   16  100   17  9.261e-06  1.725e-04 10.8247 y y y y y y y y 
   17   38   17  4.186e-06  7.461e-05 10.8247 y y y y y y y y Subspace collapsed.
   18   55   17  3.846e-06  7.409e-05 10.8247 y y y y y y y y 
   19   71   17  2.357e-06  4.582e-05 10.8247 y y y y y y y y 
   20   73   17  2.355e-06  4.584e-05 10.8247 y y y y y y y y 
   21   87   17  2.845e-06  5.626e-05 10.8247 y y y y y y y y 
   22   99   17  2.454e-06  4.845e-05 10.8247 y y y y y y y y 
   23  100   17  2.467e-06  4.868e-05 10.8247 y y y y y y y y 
   24   31   17  1.156e-06  2.271e-05 10.8247 y y y y y y y y Subspace collapsed.
   25   43   17  6.497e-07  1.268e-05 10.8247 y y y y y y y y 
   26   55   17  5.546e-07  1.083e-05 10.8247 y y y y y y y y 
   27   55   17  5.546e-07  1.083e-05 10.8247 y y y y y y y y 
   28   75   17  3.985e-07  7.736e-06 10.8247 y y y y y y y y 
   29   75   17  3.985e-07  7.736e-06 10.8247 y y y y y y y y 
   30   76   17  3.978e-07  7.722e-06 10.8247 y y y y y y y y 
   31   76   17  3.978e-07  7.722e-06 10.8247 y y y y y y y y 
   32   76   17  3.978e-07  7.722e-06 10.8247 y y y y y y y y 
   33   96   18  4.390e-07  8.497e-06 10.8247 y y y y y y y y 
   34   96   18  4.390e-07  8.497e-06 10.8247 y y y y y y y y 
   35   96   18  4.390e-07  8.497e-06 10.8247 y y y y y y y y 
   36   96   18  4.390e-07  8.497e-06 10.8247 y y y y y y y y 
   37  100   18  4.396e-07  8.509e-06 10.8247 y y y y y y y y 
   38   20   18  4.396e-07  8.509e-06 10.8247 y y y y y y y y Subspace collapsed.
   39   21   18  4.396e-07  8.509e-06 10.8247 y y y y y y y y 
   40   22   18  4.396e-07  8.508e-06 10.8247 y y y y y y y y 
   41   22   18  4.396e-07  8.508e-06 10.8247 y y y y y y y y 
   42   22   18  4.396e-07  8.508e-06 10.8247 y y y y y y y y 
   43   42   18  2.275e-07  4.391e-06 10.8247 y y y y y y y y 
   44   51   18  2.505e-07  4.810e-06 10.8247 y y y y y y y y 
   45   51   18  2.505e-07  4.810e-06 10.8247 y y y y y y y y 
   46   51   18  2.505e-07  4.810e-06 10.8247 y y y y y y y y 
   47   52   18  2.509e-07  4.817e-06 10.8247 y y y y y y y y 
   48   52   18  2.509e-07  4.817e-06 10.8247 y y y y y y y y 
   49   52   18  2.509e-07  4.817e-06 10.8247 y y y y y y y y 
   50   52   18  2.509e-07  4.817e-06 10.8247 y y y y y y y y 
   51   72   18  2.001e-07  3.758e-06 10.8247 y y y y y y y y 
   52   72   18  2.001e-07  3.758e-06 10.8247 y y y y y y y y 
   53   72   18  2.001e-07  3.758e-06 10.8247 y y y y y y y y 
   54   72   18  2.001e-07  3.758e-06 10.8247 y y y y y y y y 
   55   92   18  2.212e-07  3.854e-06 10.8247 y y y y y y y y 
   56   92   18  2.212e-07  3.854e-06 10.8247 y y y y y y y y 
   57   92   18  2.212e-07  3.854e-06 10.8247 y y y y y y y y 
   58   99   18  2.249e-07  3.905e-06 10.8247 y y y y y y y y 
   59   99   18  2.249e-07  3.905e-06 10.8247 y y y y y y y y 
--------------------------------------------------------------------------------
  Davidson Summary: 
 ------------------------------------------------------------
  State  0: excitation energy =  10.8247 a.u.   (converged)
  State  1: excitation energy =  10.8837 a.u.   (converged)
  State  2: excitation energy =  10.9731 a.u.   (converged)
  State  3: excitation energy =  11.1822 a.u.   (converged)
  State  4: excitation energy =  11.1890 a.u.   (converged)
  State  5: excitation energy =  11.2026 a.u.   (converged)
  State  6: excitation energy =  11.2600 a.u.   (converged)
  State  7: excitation energy =  11.2673 a.u.   (converged)
  State  8: excitation energy =  11.2825 a.u.   (converged)
  State  9: excitation energy =  11.5546 a.u.   (converged)
  State 10: excitation energy =  11.5738 a.u.   (converged)
  State 11: excitation energy =  11.5816 a.u.   (converged)
  State 12: excitation energy =  11.5900 a.u.   (converged)
  State 13: excitation energy =  11.5945 a.u.   (converged)
  State 14: excitation energy =  11.5967 a.u.   (converged)
  State 15: excitation energy =  11.5982 a.u.   (converged)
  State 16: excitation energy =  11.6138 a.u.   (converged)
  State 17: excitation energy =  12.1129 a.u.   (not converged)
  State 18: excitation energy =  12.1384 a.u.   (converged)
  State 19: excitation energy =  12.1458 a.u.   (not converged)
 ------------------------------------------------------------


--------------------------------------------------------------------------------
                             Excited State Summary
--------------------------------------------------------------------------------

  Excited state  1 (A)                                             [converged]
  ----------------------------------------------------------------------------
  Term symbol:  2 (-) A                                     R^2 =  6.55698e-12

  Total energy:                                           -425.0540959108 a.u.
  Excitation energy:                                             294.555172 eV

  Osc. strength:                                                      0.000009
  Trans. dip. moment [a.u.]:           [   0.000889,   -0.000513,   -0.000369]
  <i|r^2|0> [a.u.]:                    [  -0.003366,   -0.003798,    0.000238]

  V1^2 = 0.8611, V2^2 = 0.1389

  Important amplitudes:
     core i     occ j      vir a      vir b          v   
    ------------------------------------------------------
     5 (A) B              21 (A) B                 0.9255
     5 (A) B   11 (A) B   21 (A) B   22 (A) B     -0.0753
    ------------------------------------------------------
  ----------------------------------------------------------------------------


  Excited state  2 (A)                                             [converged]
  ----------------------------------------------------------------------------
  Term symbol:  3 (-) A                                     R^2 =  4.39207e-11

  Total energy:                                           -424.9951097884 a.u.
  Excitation energy:                                             296.160266 eV

  Osc. strength:                                                      0.001047
  Trans. dip. moment [a.u.]:           [  -0.003955,   -0.010617,    0.003987]
  <i|r^2|0> [a.u.]:                    [   0.010619,   -0.099041,    0.000051]

  V1^2 = 0.9620, V2^2 = 0.0380

  Important amplitudes:
     core i     occ j      vir a      vir b          v   
    ------------------------------------------------------
     5 (A) A              22 (A) A                -0.7269
     5 (A) B              22 (A) B                 0.6039
    ------------------------------------------------------
  ----------------------------------------------------------------------------


  Excited state  3 (A)                                             [converged]
  ----------------------------------------------------------------------------
  Term symbol:  4 (-) A                                     R^2 =  2.87894e-10

  Total energy:                                           -424.9056761390 a.u.
  Excitation energy:                                             298.593879 eV

  Osc. strength:                                                      0.123115
  Trans. dip. moment [a.u.]:           [  -0.043578,   -0.114865,    0.041671]
  <i|r^2|0> [a.u.]:                    [   0.115717,   -1.075467,   -0.000297]

  V1^2 = 0.9579, V2^2 = 0.0421

  Important amplitudes:
     core i     occ j      vir a      vir b          v   
    ------------------------------------------------------
     5 (A) B              22 (A) B                -0.7326
     5 (A) A              22 (A) A                -0.6102
    ------------------------------------------------------
  ----------------------------------------------------------------------------


  Excited state  4 (A)                                             [converged]
  ----------------------------------------------------------------------------
  Term symbol:  5 (-) A                                     R^2 =  1.53496e-11

  Total energy:                                           -424.6965775888 a.u.
  Excitation energy:                                             304.283740 eV

  Osc. strength:                                                      0.000155
  Trans. dip. moment [a.u.]:           [  -0.003800,    0.001951,    0.001602]
  <i|r^2|0> [a.u.]:                    [   0.009642,    0.018160,   -0.000501]

  V1^2 = 0.9535, V2^2 = 0.0465

  Important amplitudes:
     core i     occ j      vir a      vir b          v   
    ------------------------------------------------------
     5 (A) A              24 (A) A                -0.5680
     5 (A) B              25 (A) B                 0.5372
    ------------------------------------------------------
  ----------------------------------------------------------------------------


  Excited state  5 (A)                                             [converged]
  ----------------------------------------------------------------------------
  Term symbol:  6 (-) A                                     R^2 =  4.34043e-12

  Total energy:                                           -424.6898249043 a.u.
  Excitation energy:                                             304.467490 eV

  Osc. strength:                                                      0.000008
  Trans. dip. moment [a.u.]:           [  -0.000415,   -0.000959,    0.000066]
  <i|r^2|0> [a.u.]:                    [   0.000884,   -0.009261,   -0.000147]

  V1^2 = 0.9514, V2^2 = 0.0486

  Important amplitudes:
     core i     occ j      vir a      vir b          v   
    ------------------------------------------------------
     5 (A) B              24 (A) B                -0.5075
     5 (A) A              25 (A) A                -0.5073
    ------------------------------------------------------
  ----------------------------------------------------------------------------


  Excited state  6 (A)                                             [converged]
  ----------------------------------------------------------------------------
  Term symbol:  7 (-) A                                     R^2 =  1.16171e-11

  Total energy:                                           -424.6761857107 a.u.
  Excitation energy:                                             304.838631 eV

  Osc. strength:                                                      0.000028
  Trans. dip. moment [a.u.]:           [   0.000851,    0.001747,   -0.000069]
  <i|r^2|0> [a.u.]:                    [  -0.001845,    0.016920,    0.000289]

  V1^2 = 0.9356, V2^2 = 0.0644

  Important amplitudes:
     core i     occ j      vir a      vir b          v   
    ------------------------------------------------------
     5 (A) A              23 (A) A                 0.5633
     5 (A) B              23 (A) B                -0.5406
    ------------------------------------------------------
  ----------------------------------------------------------------------------


  Excited state  7 (A)                                             [converged]
  ----------------------------------------------------------------------------
  Term symbol:  8 (-) A                                     R^2 =  1.86865e-11

  Total energy:                                           -424.6187907154 a.u.
  Excitation energy:                                             306.400429 eV

  Osc. strength:                                                      0.118225
  Trans. dip. moment [a.u.]:           [   0.104064,   -0.054988,   -0.043547]
  <i|r^2|0> [a.u.]:                    [  -0.261884,   -0.514419,    0.013715]

  V1^2 = 0.9452, V2^2 = 0.0548

  Important amplitudes:
     core i     occ j      vir a      vir b          v   
    ------------------------------------------------------
     5 (A) B              25 (A) B                 0.6138
     5 (A) A              24 (A) A                 0.5610
    ------------------------------------------------------
  ----------------------------------------------------------------------------


  Excited state  8 (A)                                             [converged]
  ----------------------------------------------------------------------------
  Term symbol:  9 (-) A                                     R^2 =  1.51008e-12

  Total energy:                                           -424.6114542299 a.u.
  Excitation energy:                                             306.600064 eV

  Osc. strength:                                                      0.111684
  Trans. dip. moment [a.u.]:           [  -0.056146,   -0.023223,   -0.105720]
  <i|r^2|0> [a.u.]:                    [   0.136118,   -0.223655,    0.012100]

  V1^2 = 0.9442, V2^2 = 0.0558

  Important amplitudes:
     core i     occ j      vir a      vir b          v   
    ------------------------------------------------------
     5 (A) B              24 (A) B                 0.5657
     5 (A) A              25 (A) A                -0.5625
    ------------------------------------------------------
  ----------------------------------------------------------------------------


  Excited state  9 (A)                                             [converged]
  ----------------------------------------------------------------------------
  Term symbol:  10 (-) A                                    R^2 =  6.84798e-12

  Total energy:                                           -424.5963054954 a.u.
  Excitation energy:                                             307.012282 eV

  Osc. strength:                                                      0.010242
  Trans. dip. moment [a.u.]:           [   0.006204,   -0.016724,    0.032303]
  <i|r^2|0> [a.u.]:                    [  -0.036557,   -0.185520,   -0.025605]

  V1^2 = 0.9192, V2^2 = 0.0808

  Important amplitudes:
     core i     occ j      vir a      vir b          v   
    ------------------------------------------------------
     5 (A) B              23 (A) B                -0.6290
     5 (A) A              23 (A) A                -0.6057
    ------------------------------------------------------
  ----------------------------------------------------------------------------


  Excited state 10 (A)                                             [converged]
  ----------------------------------------------------------------------------
  Term symbol:  11 (-) A                                    R^2 =  3.94647e-12

  Total energy:                                           -424.3242395865 a.u.
  Excitation energy:                                             314.415572 eV

  Osc. strength:                                                      0.000000
  Trans. dip. moment [a.u.]:           [   0.000063,   -0.000081,    0.000148]
  <i|r^2|0> [a.u.]:                    [  -0.000467,   -0.001077,   -0.000334]

  V1^2 = 0.9032, V2^2 = 0.0968

  Important amplitudes:
     core i     occ j      vir a      vir b          v   
    ------------------------------------------------------
     5 (A) A              29 (A) A                -0.5625
     5 (A) B              29 (A) B                 0.5471
    ------------------------------------------------------
  ----------------------------------------------------------------------------


  Excited state 11 (A)                                             [converged]
  ----------------------------------------------------------------------------
  Term symbol:  12 (-) A                                    R^2 =  9.22921e-12

  Total energy:                                           -424.3049537450 a.u.
  Excitation energy:                                             314.940367 eV

  Osc. strength:                                                      0.004669
  Trans. dip. moment [a.u.]:           [  -0.020427,    0.010653,    0.008622]
  <i|r^2|0> [a.u.]:                    [   0.050360,    0.100535,   -0.002305]

  V1^2 = 0.8930, V2^2 = 0.1070

  Important amplitudes:
     core i     occ j      vir a      vir b          v   
    ------------------------------------------------------
     5 (A) A              27 (A) A                 0.7123
     5 (A) A              24 (A) A                 0.4917
    ------------------------------------------------------
  ----------------------------------------------------------------------------


  Excited state 12 (A)                                             [converged]
  ----------------------------------------------------------------------------
  Term symbol:  13 (-) A                                    R^2 =  3.42915e-12

  Total energy:                                           -424.2972362505 a.u.
  Excitation energy:                                             315.150371 eV

  Osc. strength:                                                      0.000407
  Trans. dip. moment [a.u.]:           [   0.003881,    0.003734,    0.004863]
  <i|r^2|0> [a.u.]:                    [  -0.009728,    0.034946,   -0.001175]

  V1^2 = 0.8928, V2^2 = 0.1072

  Important amplitudes:
     core i     occ j      vir a      vir b          v   
    ------------------------------------------------------
     5 (A) A              28 (A) A                -0.5421
     5 (A) B              28 (A) B                 0.4308
    ------------------------------------------------------
  ----------------------------------------------------------------------------


  Excited state 13 (A)                                             [converged]
  ----------------------------------------------------------------------------
  Term symbol:  14 (-) A                                    R^2 =  5.92674e-12

  Total energy:                                           -424.2887643684 a.u.
  Excitation energy:                                             315.380902 eV

  Osc. strength:                                                      0.018420
  Trans. dip. moment [a.u.]:           [  -0.017215,   -0.043400,    0.014285]
  <i|r^2|0> [a.u.]:                    [   0.025646,   -0.425934,   -0.019528]

  V1^2 = 0.9053, V2^2 = 0.0947

  Important amplitudes:
     core i     occ j      vir a      vir b          v   
    ------------------------------------------------------
     5 (A) B              29 (A) B                -0.5548
     5 (A) A              29 (A) A                -0.5515
    ------------------------------------------------------
  ----------------------------------------------------------------------------


  Excited state 14 (A)                                             [converged]
  ----------------------------------------------------------------------------
  Term symbol:  15 (-) A                                    R^2 =  8.36741e-12

  Total energy:                                           -424.2842661120 a.u.
  Excitation energy:                                             315.503306 eV

  Osc. strength:                                                      0.024065
  Trans. dip. moment [a.u.]:           [  -0.046333,    0.024423,    0.019237]
  <i|r^2|0> [a.u.]:                    [   0.114408,    0.230410,   -0.004842]

  V1^2 = 0.8926, V2^2 = 0.1074

  Important amplitudes:
     core i     occ j      vir a      vir b          v   
    ------------------------------------------------------
     5 (A) B              27 (A) B                 0.7466
     5 (A) B              25 (A) B                 0.4335
    ------------------------------------------------------
  ----------------------------------------------------------------------------


  Excited state 15 (A)                                             [converged]
  ----------------------------------------------------------------------------
  Term symbol:  16 (-) A                                    R^2 =  3.40224e-11

  Total energy:                                           -424.2820546773 a.u.
  Excitation energy:                                             315.563482 eV

  Osc. strength:                                                      0.015690
  Trans. dip. moment [a.u.]:           [   0.021954,    0.012382,    0.037339]
  <i|r^2|0> [a.u.]:                    [  -0.059552,    0.110635,   -0.013196]

  V1^2 = 0.8949, V2^2 = 0.1051

  Important amplitudes:
     core i     occ j      vir a      vir b          v   
    ------------------------------------------------------
     5 (A) A              26 (A) A                -0.5558
     5 (A) B              28 (A) B                -0.4753
    ------------------------------------------------------
  ----------------------------------------------------------------------------


  Excited state 16 (A)                                             [converged]
  ----------------------------------------------------------------------------
  Term symbol:  17 (-) A                                    R^2 =  1.14675e-11

  Total energy:                                           -424.2805707143 a.u.
  Excitation energy:                                             315.603863 eV

  Osc. strength:                                                      0.013121
  Trans. dip. moment [a.u.]:           [   0.017672,    0.004281,    0.036964]
  <i|r^2|0> [a.u.]:                    [  -0.041830,    0.042053,   -0.006000]

  V1^2 = 0.8939, V2^2 = 0.1061

  Important amplitudes:
     core i     occ j      vir a      vir b          v   
    ------------------------------------------------------
     5 (A) A              26 (A) A                 0.5274
     5 (A) A              28 (A) A                -0.4520
    ------------------------------------------------------
  ----------------------------------------------------------------------------


  Excited state 17 (A)                                             [converged]
  ----------------------------------------------------------------------------
  Term symbol:  18 (-) A                                    R^2 =  6.05831e-12

  Total energy:                                           -424.2649958717 a.u.
  Excitation energy:                                             316.027676 eV

  Osc. strength:                                                      0.008382
  Trans. dip. moment [a.u.]:           [   0.005992,    0.026751,   -0.018197]
  <i|r^2|0> [a.u.]:                    [  -0.025142,    0.240318,   -0.006532]

  V1^2 = 0.8947, V2^2 = 0.1053

  Important amplitudes:
     core i     occ j      vir a      vir b          v   
    ------------------------------------------------------
     5 (A) B              26 (A) B                -0.7775
     5 (A) A              26 (A) A                -0.4053
    ------------------------------------------------------
  ----------------------------------------------------------------------------


  Excited state 18 (A)                                         [not converged]
  ----------------------------------------------------------------------------
  Term symbol:  19 (-) A                                    R^2 =  3.90489e-06

  Total energy:                                           -423.7659075169 a.u.
  Excitation energy:                                             329.608561 eV


  V1^2 = 0.8862, V2^2 = 0.1138

  Important amplitudes:
     core i     occ j      vir a      vir b          v   
    ------------------------------------------------------
     5 (A) A              30 (A) A                -0.9203
     5 (A) A              36 (A) A                 0.1688
    ------------------------------------------------------
  ----------------------------------------------------------------------------


  Excited state 19 (A)                                             [converged]
  ----------------------------------------------------------------------------
  Term symbol:  20 (-) A                                    R^2 =  3.87009e-07

  Total energy:                                           -423.7404215371 a.u.
  Excitation energy:                                             330.302069 eV

  Osc. strength:                                                      0.000089
  Trans. dip. moment [a.u.]:           [  -0.001452,   -0.000387,   -0.002946]
  <i|r^2|0> [a.u.]:                    [   0.002128,   -0.005454,    0.004102]

  V1^2 = 0.8883, V2^2 = 0.1117

  Important amplitudes:
     core i     occ j      vir a      vir b          v   
    ------------------------------------------------------
     5 (A) A              31 (A) A                 0.9171
     5 (A) A              37 (A) A                -0.1699
    ------------------------------------------------------
  ----------------------------------------------------------------------------


  Excited state 20 (A)                                         [not converged]
  ----------------------------------------------------------------------------
  Term symbol:  21 (-) A                                    R^2 =  2.19691e-06

  Total energy:                                           -423.7329672179 a.u.
  Excitation energy:                                             330.504912 eV


  V1^2 = 0.8889, V2^2 = 0.1111

  Important amplitudes:
     core i     occ j      vir a      vir b          v   
    ------------------------------------------------------
     5 (A) B              30 (A) B                 0.9179
     5 (A) B              36 (A) B                 0.1667
    ------------------------------------------------------
  ----------------------------------------------------------------------------


--------------------------------------------------------------------------------
  Time of ADC calculation:  CPU 1345.83 s  wall 1377.99 s
================================================================================
 
 --------------------------------------------------------------
 
                    Orbital Energies (a.u.)
 --------------------------------------------------------------
 
 Alpha MOs
 -- Occupied --
-26.885 -26.692 -26.691 -26.689 -11.932  -2.184  -2.088  -2.011
 -2.010  -1.339  -1.301  -1.237  -1.219  -1.184  -1.158  -1.045
 -1.032  -1.032  -1.002  -0.998  -0.975
 -- Virtual --
 -0.061   0.127   0.185   0.198   0.370   0.411   0.420   0.429
  0.920   0.953   0.963   1.036   1.037   1.094   1.218   1.257
  1.292   1.296   1.332   1.334   1.340   1.370   1.425   1.541
  1.546   1.709   1.715   1.732   1.807   1.807   1.808   1.951
  1.964   1.994   1.997   2.023   2.037   2.056   2.092   2.220
  2.453   2.665   2.687   2.880   2.941   2.950   3.202   3.203
  3.259   4.020   4.409   4.717   4.752   6.061
 
 Beta MOs
 -- Occupied --
-26.833 -26.691 -26.691 -26.689 -11.932  -2.133  -2.011  -2.008
 -1.949  -1.318  -1.220  -1.206  -1.193  -1.121  -1.033  -1.030
 -1.017  -1.004  -0.996  -0.974
 -- Virtual --
 -0.351  -0.048   0.130   0.199   0.209   0.377   0.417   0.421
  0.429   0.963   0.983   1.009   1.037   1.038   1.101   1.265
  1.281   1.301   1.329   1.333   1.340   1.357   1.379   1.434
  1.577   1.582   1.735   1.749   1.753   1.808   1.813   1.814
  1.974   1.979   1.998   1.998   2.033   2.060   2.076   2.092
  2.228   2.462   2.671   2.688   2.899   2.942   2.950   3.202
  3.204   3.261   4.043   4.412   4.719   4.753   6.064
 --------------------------------------------------------------
 
          Ground-State Mulliken Net Atomic Charges

     Atom                 Charge (a.u.)    Spin (a.u.)
  --------------------------------------------------------
      1 C                     1.349661      -0.029097
      2 F                    -0.183886       0.009218
      3 F                    -0.183355       0.008431
      4 F                     0.189035       1.015461
      5 F                    -0.171455      -0.004013
  --------------------------------------------------------
  Sum of atomic charges =     1.000000
  Sum of spin   charges =     1.000000

 -----------------------------------------------------------------
                    Cartesian Multipole Moments
 -----------------------------------------------------------------
    Charge (ESU x 10^10)
                 4.8032
    Dipole Moment (Debye)
         X      -3.9843      Y       9.6672      Z       0.5650
       Tot      10.4713
    Quadrupole Moments (Debye-Ang)
        XX     -17.7957     XY      -7.2989     YY       0.2214
        XZ      -1.0308     YZ       0.3010     ZZ     -21.4571
    Octopole Moments (Debye-Ang^2)
       XXX      40.6030    XXY     -45.0709    XYY       0.0521
       YYY    -100.7640    XXZ       1.8883    XYZ      -1.2544
       YYZ      -0.5639    XZZ      14.2740    YZZ     -51.0738
       ZZZ       0.4805
    Hexadecapole Moments (Debye-Ang^3)
      XXXX    -125.5346   XXXY     100.3213   XXYY    -144.8765
      XYYY      73.0174   YYYY    -665.7139   XXXZ      -3.0312
      XXYZ       2.8944   XYYZ      -1.8322   YYYZ      -2.1777
      XXZZ     -32.7277   XYZZ      34.0161   YYZZ    -144.7142
      XZZZ      -0.0427   YZZZ       1.3992   ZZZZ     -69.8742
 -----------------------------------------------------------------
Archival summary:
1\1\tp-linux1\SP\HF\6-31G*\41(1+,2)\thomas\WedMar2213:21:372017WedMar2213:21:372017\0\\#,HF,6-31G*,\\1,2\C\F,1,1.2395\F,1,1.2485,2,116.158\F,1,1.24893,2,116.131,3,141.027,0\F,1,1.52441,2,102.342,3,-109.515,0\\HF=-435.131521\\@

 Total job time:  1389.82s(wall), 1354.42s(cpu) 
 Wed Mar 22 13:21:37 2017

        *************************************************************
        *                                                           *
        *  Thank you very much for using Q-Chem.  Have a nice day.  *
        *                                                           *
        *************************************************************


0 sent ACK to 0 
now end server 0 ... 
cleanup process ... done
