
Running Job 1 of 1 ddtraj1t4.inp
qchem ddtraj1t4.inp_25744.0 /scratch/qchem/qchem25744/ 1
/mnt/software/qchem/bin/mpi/mpirun_qchem -machinefile /mnt/software/qchem/bin/mpi/machines -np 1 /mnt/software/qchem/exe/qcprog.exe ddtraj1t4.inp_25744.0 /scratch/qchem/qchem25744/

Process 0 of 1 is on tp-linux1 - thread support 0
initial socket setup ...start
initial socket setup ...done 
now start server 0 ... 

cmd = ssh tp-linux1 /mnt/software/qchem/bin/get_hostid 1033615752 > /scratch/qchem/qchem25744/lic.dat
                  Welcome to Q-Chem
     A Quantum Leap Into The Future Of Chemistry


 Q-Chem 4.3, Q-Chem, Inc., Pleasanton, CA (2015)

 Y. Shao,  Z. Gan,  E. Epifanovsky,  A. T. B. Gilbert,  M. Wormit,  
 J. Kussmann,  A. W. Lange,  A. Behn,  J. Deng,  X. Feng,  D. Ghosh,  
 M. Goldey,  P. R. Horn,  L. D. Jacobson,  I. Kaliman,  R. Z. Khaliullin,  
 T. Kus,  A. Landau,  J. Liu,  E. I. Proynov,  Y. M. Rhee,  R. M. Richard,  
 M. A. Rohrdanz,  R. P. Steele,  E. J. Sundstrom,  H. L. Woodcock III,  
 P. M. Zimmerman,  D. Zuev,  B. Albrecht,  E. Alguire,  B. Austin,  
 S. A. Baeppler,  G. J. O. Beran,  Y. A. Bernard,  E. Berquist,  
 K. Brandhorst,  K. B. Bravaya,  S. T. Brown,  D. Casanova,  C.-M. Chang,  
 Y. Chen,  S. H. Chien,  K. D. Closser,  D. L. Crittenden,  M. Diedenhofen,  
 R. A. DiStasio Jr.,  H. Do,  A. D. Dutoi,  R. G. Edgar,  P.-T. Fang,  
 S. Fatehi,  Q. Feng,  L. Fusti-Molnar,  A. Ghysels,  
 A. Golubeva-Zadorozhnaya,  J. Gomes,  A. Gunina,  M. W. D. Hanson-Heine,  
 P. H. P. Harbach,  A. W. Hauser,  E. G. Hohenstein,  Z. C. Holden,  K. Hui,  
 T.-C. Jagau,  H. Ji,  B. Kaduk,  K. Khistyaev,  Jaehoon Kim,  Jihan Kim,  
 R. A. King,  P. Klunzinger,  D. Kosenkov,  T. Kowalczyk,  C. M. Krauter,  
 K. U. Lao,  A. Laurent,  K. V. Lawler,  S. Lehtola,  S. V. Levchenko,  
 C. Y. Lin,  Y.-S. Lin,  F. Liu,  E. Livshits,  R. C. Lochan,  A. Luenser,  
 P. Manohar,  S. F. Manzer,  S.-P. Mao,  N. Mardirossian,  A. V. Marenich,  
 L. A. Martinez-Martinez,  S. A. Maurer,  N. J. Mayhall,  K. Nanda,  
 C. M. Oana,  R. Olivares-Amaya,  D. P. O'Neill,  J. A. Parkhill,  
 T. M. Perrine,  R. Peverati,  P. A. Pieniazek,  F. Plasser,  A. Prociuk,  
 D. R. Rehn,  E. Rosta,  N. J. Russ,  N. Sergueev,  S. M. Sharada,  
 S. Sharma,  D. W. Small,  A. Sodt,  T. Stauch,  T. Stein,  D. Stuck,  
 Y.-C. Su,  A. J. W. Thom,  T. Tsuchimochi,  L. Vogt,  O. Vydrov,  T. Wang,  
 M. A. Watson,  J. Wenzel,  A. White,  C. F. Williams,  V. Vanovschi,  
 S. Yeganeh,  S. R. Yost,  Z.-Q. You,  I. Y. Zhang,  X. Zhang,  Y. Zhao,  
 B. R. Brooks,  G. K. L. Chan,  D. M. Chipman,  C. J. Cramer,  
 W. A. Goddard III,  M. S. Gordon,  W. J. Hehre,  A. Klamt,  
 H. F. Schaefer III,  M. W. Schmidt,  C. D. Sherrill,  D. G. Truhlar,  
 A. Warshel,  X. Xu,  A. Aspuru-Guzik,  R. Baer,  A. T. Bell,  N. A. Besley,  
 J.-D. Chai,  A. Dreuw,  B. D. Dunietz,  T. R. Furlani,  S. R. Gwaltney,  
 C.-P. Hsu,  Y. Jung,  J. Kong,  D. S. Lambrecht,  W. Liang,  C. Ochsenfeld,  
 V. A. Rassolov,  L. V. Slipchenko,  J. E. Subotnik,  T. Van Voorhis,  
 J. M. Herbert,  A. I. Krylov,  P. M. W. Gill,  M. Head-Gordon

 Contributors to earlier versions of Q-Chem not listed above: 
 R. D. Adamson,  J. Baker,  E. F. C. Byrd,  A. K. Chakraborty,  C.-L. Cheng,  
 H. Dachsel,  R. J. Doerksen,  G. Hawkins,  A. Heyden,  S. Hirata,  
 G. Kedziora,  F. J. Keil,  C. Kelley,  P. P. Korambath,  W. Kurlancheek,  
 A. M. Lee,  M. S. Lee,  D. Liotard,  I. Lotan,  P. E. Maslen,  N. Nair,  
 D. Neuhauser,  R. Olson,  B. Peters,  J. Ritchie,  N. E. Schultz,  
 N. Shenvi,  A. C. Simmonett,  K. S. Thanthiriwatte,  Q. Wu,  W. Zhang

 Please cite Q-Chem as follows:
 Y. Shao et al., Mol. Phys. 113, 184-215 (2015)
 DOI: 10.1080/00268976.2014.952696

 Q-Chem 4.3.0 for Intel X86 Linux

 Parts of Q-Chem use Armadillo 5.200.1 (Boston Tea Smuggler).
 http://arma.sourceforge.net/

 Q-Chem begins on Wed Mar 22 12:15:08 2017  

Host: 
0

     Scratch files written to /scratch/qchem/qchem25744//
 Nov1815 1189b_ 19540  19532 5443   
 Parallel job on  1  processors
Processing $rem in /mnt/software/qchem/config/preferences.
 MEM_TOTAL  2000 

Checking the input file for inconsistencies... 	...done.

--------------------------------------------------------------
User input:
--------------------------------------------------------------
$comment
XAS calculation for valence excited states for CF4+ using cvs-adc(2) + 6-31G* basis set
job 1 - determination of HF orbitals
$end

$molecule
1 2
6  -0.674363  2.420345  -0.029304
9  0.595903  2.343358  0.002057
9  -1.134376  3.28347  0.785156
9  -1.141473  1.173638  0.434598
9  -1.133181  2.553584  -1.203302
$end

$comment
cvs-adc(2) calculation
$end

$rem
mem_total 3000
mem_static 1500
sym_ignore true
method cvs-adc(2)
basis 6-31G*
ee_singlets 20
cc_rest_occ 5                  !only excitations from the lowest N orbitals
unrestricted  true
max_scf_cycles 200
SCF_ALGORITHM = DIIS_GDM
SCF_CONVERGENCE = 7
THRESH = 10
$end
--------------------------------------------------------------
 ----------------------------------------------------------------
             Standard Nuclear Orientation (Angstroms)
    I     Atom           X                Y                Z
 ----------------------------------------------------------------
    1      C      -0.6743630000     2.4203450000    -0.0293040000
    2      F       0.5959030000     2.3433580000     0.0020570000
    3      F      -1.1343760000     3.2834700000     0.7851560000
    4      F      -1.1414730000     1.1736380000     0.4345980000
    5      F      -1.1331810000     2.5535840000    -1.2033020000
 ----------------------------------------------------------------
 Nuclear Repulsion Energy =   208.5074068290 hartrees
 There are       21 alpha and       20 beta electrons
 Requested basis set is 6-31G(d)
 There are 20 shells and 75 basis functions

 Total QAlloc Memory Limit   3000 MB
 Mega-Array Size      1467 MB
 MEM_STATIC part      1500 MB

                       Distance Matrix (Angstroms)
             C (  1)   F (  2)   F (  3)   F (  4)
   F (  2)  1.272983
   F (  3)  1.272769  2.119179
   F (  4)  1.409849  2.138647  2.138769
   F (  5)  1.267493  2.118211  2.118183  2.141737
 
 tim1(1): 
  0.000000000000000E+000
 tim1(2): 
  0.000000000000000E+000
 A cutoff of  1.0D-10 yielded    204 shell pairs
 There are      2979 function pairs
 
 -------------------------------------------------------
 OpenMP Integral Computing Module                       
 Release: version 1.0, May 2013, Q-Chem Inc. Pittsburgh 
 -------------------------------------------------------
 Integral Job Info:
 Integral job number is                      11
 Integral operator is                         1
 short-range coefficients                     0
 long-range coefficients              100000000
 Omega coefficients                           0
 if combine SR and LR in K                    0
 Integral screening is                        0
 Integral computing path is                   2
 max size of driver memory is            800000
 size of driver memory is                593474
 size of scratch memory is              2260544
 max col of scratch BK array               1296
 max len of scratch array in speh3          155
 max len of scratch index in speh4           18
 max int batch size is                      520
 min int batch size is                       52
 fixed nKL is                                52
 max L of basis functions is                  2
 order of int derivative is                   0
 number of shells is                         20
 number of basis is                          75
 number of cartesian basis is                75
 number of contracted shell pairs           204
 number of primitive shell pairs           1069
 maxK2 (contraction) of shell pair           36
 max number of K2 of shell pair               1
 max number of CS2 of shell pair             37
 max number of PS2 of shell pair            222
 mem total for path MDJ                   21832
 -------------------------------------------------------
 Smallest overlap matrix eigenvalue = 1.75E-03

 Scale SEOQF with 1.000000e+00/1.000000e-01/1.000000e+00

 Standard Electronic Orientation quadrupole field applied
 Nucleus-field energy     =     0.0000000109 hartrees
 Guess from superposition of atomic densities
 Warning:  Energy on first SCF cycle will be non-variational
 An unrestricted Hartree-Fock SCF calculation will be
 performed using Pulay DIIS + Geometric Direct Minimization
 SCF converges when RMS gradient is below 1.0E-07
 ---------------------------------------
  Cycle       Energy         DIIS Error
 ---------------------------------------
    1    -436.6385416855      9.00E-02
    2    -434.8402556522      1.86E-02
    3    -435.0326170419      8.20E-03 Done DIIS. Switching to GDM
    4    -435.0817748403      8.86E-02 Normal BFGS step
    5    -435.0977168483      5.58E-02 Normal BFGS step
    6    -435.1038947619      3.05E-02 Normal BFGS step
    7    -435.1068177062      6.11E-03 Normal BFGS step
    8    -435.1070636074      3.05E-03 Normal BFGS step
    9    -435.1071456295      1.25E-03 Normal BFGS step
   10    -435.1071558181      1.13E-03 Normal BFGS step
   11    -435.1071644854      9.18E-04 Normal BFGS step
   12    -435.1071699904      6.03E-04 Normal BFGS step
   13    -435.1071738488      3.44E-04 Normal BFGS step
   14    -435.1071753579      1.40E-04 Normal BFGS step
   15    -435.1071757637      6.97E-05 Normal BFGS step
   16    -435.1071758501      6.82E-05 Normal BFGS step
   17    -435.1071758837      6.83E-05 Normal BFGS step
   18    -435.1071759209      6.91E-05 Normal BFGS step
   19    -435.1071759931      7.05E-05 Normal BFGS step
   20    -435.1071761635      1.17E-04 Normal BFGS step
   21    -435.1071765907      1.89E-04 Normal BFGS step
   22    -435.1071776997      2.92E-04 Normal BFGS step
   23    -435.1071806275      4.48E-04 Normal BFGS step
   24    -435.1071859416      8.60E-04 Normal BFGS step
   25    -435.1071942771      4.60E-04 Line search: understep
   26    -435.1070209678      3.71E-03 Line search: overstep
   27    -435.1072008871      8.61E-04 Dog-leg BFGS step
   28    -435.1072437360      1.30E-03 Normal BFGS step
   29    -435.1072301979      6.08E-04 Line search: overstep
   30    -435.1072486889      5.38E-04 Dog-leg BFGS step
   31    -435.1072635202      7.72E-04 Dog-leg BFGS step
   32    -435.1072813792      1.01E-03 Dog-leg BFGS step
   33    -435.1073029828      5.23E-04 Dog-leg BFGS step
   34    -435.1073128360      9.79E-04 Dog-leg BFGS step
   35    -435.1073250616      9.33E-04 Normal BFGS step
   36    -435.1073313834      7.78E-04 Normal BFGS step
   37    -435.1073372153      7.96E-04 Normal BFGS step
   38    -435.1073372350      1.23E-03 Normal BFGS step
   39    -435.1073442100      1.49E-04 Normal BFGS step
   40    -435.1073464920      1.07E-04 Normal BFGS step
   41    -435.1073452222      3.81E-04 Line search: overstep
   42    -435.1073484370      3.32E-04 Normal BFGS step
   43    -435.1073495953      3.98E-04 Normal BFGS step
   44    -435.1073512521      2.00E-04 Normal BFGS step
   45    -435.1073519034      1.23E-04 Normal BFGS step
   46    -435.1073522052      3.30E-05 Normal BFGS step
   47    -435.1073522462      5.80E-05 Normal BFGS step
   48    -435.1073522611      2.88E-05 Normal BFGS step
   49    -435.1073522671      5.69E-06 Normal BFGS step
   50    -435.1073522676      2.91E-06 Normal BFGS step
   51    -435.1073522677      2.34E-06 Normal BFGS step
   52    -435.1073522678      1.74E-06 Normal BFGS step
   53    -435.1073522678      1.43E-06 Normal BFGS step
   54    -435.1073522678      6.11E-07 Normal BFGS step
   55    -435.1073522678      3.05E-07 Normal BFGS step
   56    -435.1073522678      1.55E-07 Normal BFGS step
   57    -435.1073522678      1.00E-07 Convergence criterion met
 ---------------------------------------
 <S^2> = 0.7548
 SCF time:  CPU 8.82 s  wall 25.34 s
 SCF   energy in the final basis set = -435.1073522678
 Total energy in the final basis set = -435.1073522678
================================================================================
|                                                                              |
|                                 A D C  M A N                                 |
|                                                                              |
 ------------------------------------------------------------------------------ 
|                                                                              |
| Components:                                                                  |
|                                                                              |
| - libvmm - 1.2-release                                                       |
|   Authors:                                                                   |
|   Evgeny Epifanovsky, Ilya Kaliman                                           |
|                                                                              |
| - libtensor - 2.4-trunk                                                      |
|   Authors:                                                                   |
|   Evgeny Epifanovsky, Michael Wormit, Dmitry Zuev, Sam Manzer                |
|                                                                              |
| - libwfa - 1.1-beta                                                          |
|   Authors:                                                                   |
|   Felix Plasser, Stefanie Baeppler, Benjamin Thomitzni, Michael Wormit       |
|                                                                              |
| - libadc - 1.0-beta                                                          |
|   Authors:                                                                   |
|   Michael Wormit, Philipp H. P. Harbach, Caroline Krauter, Dirk Rehn,        |
|   Matthias Schneider, Jan Wenzel                                             |
|                                                                              |
| - adcman - 2.4-beta                                                          |
|   Authors:                                                                   |
|   Michael Wormit, Philipp H. P. Harbach, Caroline Krauter, Dirk Rehn,        |
|   Jan Wenzel, Andreas Dreuw                                                  |
|                                                                              |
| Authors of earlier versions of ADCMAN:                                       |
| Andreas Dreuw, Jan Hendrik Starcke, Dirk Rehn, Michael Wormit                |
|                                                                              |
================================================================================

 
 Alpha MOs, Unrestricted
 -- Occupied --                  
-26.952 -26.679 -26.679 -26.670 -11.930  -2.248  -2.077  -1.988
  1 A     2 A     3 A     4 A     5 A     6 A     7 A     8 A                  
 -1.984  -1.386  -1.362  -1.265  -1.235  -1.162  -1.150  -1.040
  9 A    10 A    11 A    12 A    13 A    14 A    15 A    16 A                  
 -1.021  -1.018  -0.984  -0.980  -0.960
 17 A    18 A    19 A    20 A    21 A                                          
 -- Virtual --                   
 -0.012   0.149   0.157   0.162   0.338   0.395   0.404   0.429
 22 A    23 A    24 A    25 A    26 A    27 A    28 A    29 A                  
  0.917   0.940   0.948   1.043   1.044   1.115   1.183   1.221
 30 A    31 A    32 A    33 A    34 A    35 A    36 A    37 A                  
  1.298   1.304   1.351   1.363   1.364   1.382   1.444   1.489
 38 A    39 A    40 A    41 A    42 A    43 A    44 A    45 A                  
  1.493   1.716   1.722   1.816   1.818   1.824   1.827   1.935
 46 A    47 A    48 A    49 A    50 A    51 A    52 A    53 A                  
  1.952   1.968   1.982   1.992   2.047   2.054   2.109   2.276
 54 A    55 A    56 A    57 A    58 A    59 A    60 A    61 A                  
  2.471   2.651   2.672   2.874   2.878   2.950   3.153   3.155
 62 A    63 A    64 A    65 A    66 A    67 A    68 A    69 A                  
  3.196   4.154   4.400   4.574   4.593   6.008
 70 A    71 A    72 A    73 A    74 A    75 A                                  
 
 Beta MOs, Unrestricted
 -- Occupied --                  
-26.899 -26.678 -26.677 -26.670 -11.931  -2.131  -2.007  -1.983
  1 A     2 A     3 A     4 A     5 A     6 A     7 A     8 A                  
 -1.983  -1.349  -1.226  -1.225  -1.171  -1.135  -1.021  -1.019
  9 A    10 A    11 A    12 A    13 A    14 A    15 A    16 A                  
 -1.012  -0.984  -0.978  -0.958
 17 A    18 A    19 A    20 A                                                  
 -- Virtual --                   
 -0.411   0.007   0.159   0.162   0.179   0.344   0.402   0.404
 21 A    22 A    23 A    24 A    25 A    26 A    27 A    28 A                  
  0.429   0.958   0.961   1.003   1.045   1.046   1.120   1.231
 29 A    30 A    31 A    32 A    33 A    34 A    35 A    36 A                  
  1.267   1.307   1.328   1.351   1.363   1.367   1.394   1.450
 37 A    38 A    39 A    40 A    41 A    42 A    43 A    44 A                  
  1.532   1.534   1.751   1.752   1.817   1.828   1.828   1.830
 45 A    46 A    47 A    48 A    49 A    50 A    51 A    52 A                  
  1.959   1.960   1.985   1.996   2.001   2.057   2.064   2.109
 53 A    54 A    55 A    56 A    57 A    58 A    59 A    60 A                  
  2.281   2.486   2.662   2.674   2.877   2.878   2.967   3.154
 61 A    62 A    63 A    64 A    65 A    66 A    67 A    68 A                  
  3.155   3.197   4.175   4.402   4.576   4.595   6.012
 69 A    70 A    71 A    72 A    73 A    74 A    75 A                          
 

--------------------------------------------------------------------------------
                                   HF Summary                                   
--------------------------------------------------------------------------------
  Energy:                                                 -435.1073522678 a.u.
  Dip. moment [a.u.]:                  [ -53.803720,  183.076287,   -0.389784]
  Total dipole [Debye]:                                             485.013801
  <r^2> [a.u.]:                        [ 158.714952,  905.062812,   88.573559]
  Total <r^2> [a.u.]:                                              1152.351323
--------------------------------------------------------------------------------

--------------------------------------------------------------------------------
                                 MP(2) Summary                                  
--------------------------------------------------------------------------------
  Energy contribution:                                      -0.7514032015 a.u.
  Total energy:                                           -435.8587554694 a.u.
  Dip. moment [a.u.]:                  [ -53.854212,  182.965924,   -0.366110]
  Total dipole [Debye]:                                             484.780777
  <r^2> [a.u.]:                        [ 158.652238,  904.111631,   88.414204]
  Total <r^2> [a.u.]:                                              1151.178072
--------------------------------------------------------------------------------
  Starting Davidson ... 
--------------------------------------------------------------------------------
   It NVec Conv  Avg. Norm  Max. Norm  Conv. states           Remark
--------------------------------------------------------------------------------
        20    0  2.117e-01  1.134e+00 11.1085 n n n n n n n n Guess.
    1   40    0  3.328e-02  3.320e-01 10.7537 n n n n n n n n 
    2   60    0  7.740e-03  7.855e-02 10.7489 n n n n n n n n 
    3   80    0  2.202e-03  2.268e-02 10.7484 n n n n n n n n 
    4  100    0  1.224e-03  1.607e-02 10.7484 n n n n n n n n 
    5   40    0  9.512e-04  1.195e-02 10.7484 n n n n n n n n Subspace collapsed.
    6   60    0  7.419e-04  1.041e-02 10.7484 n n n n n n n n 
    7   80    0  6.175e-04  8.977e-03 10.7484 n n n n n n n n 
    8  100    2  2.909e-04  4.354e-03 10.7484 n y y n n n n n 
    9   40    5  1.339e-04  1.918e-03 10.7484 y y y n y n n n Subspace collapsed.
   10   60    8  7.299e-05  1.012e-03 10.7484 y y y y y y y n 
   11   80   11  4.579e-05  6.401e-04 10.7484 y y y y y y y y 
   12  100   13  3.880e-05  5.171e-04 10.7484 y y y y y y y y 
   13   40   16  2.365e-05  3.332e-04 10.7484 y y y y y y y y Subspace collapsed.
   14   60   17  2.357e-05  3.104e-04 10.7484 y y y y y y y y 
   15   80   17  1.859e-05  2.667e-04 10.7484 y y y y y y y y 
   16  100   17  1.437e-05  1.985e-04 10.7484 y y y y y y y y 
   17   38   17  7.050e-06  1.012e-04 10.7484 y y y y y y y y Subspace collapsed.
   18   55   17  5.972e-06  9.528e-05 10.7484 y y y y y y y y 
   19   56   17  5.991e-06  9.571e-05 10.7484 y y y y y y y y 
   20   72   17  3.561e-06  5.903e-05 10.7484 y y y y y y y y 
   21   72   17  3.561e-06  5.903e-05 10.7484 y y y y y y y y 
   22   92   17  3.274e-06  5.905e-05 10.7484 y y y y y y y y 
   23  100   17  3.312e-06  5.992e-05 10.7484 y y y y y y y y 
   24   31   17  2.320e-06  3.871e-05 10.7484 y y y y y y y y Subspace collapsed.
   25   42   17  2.814e-06  4.984e-05 10.7484 y y y y y y y y 
   26   42   17  2.814e-06  4.984e-05 10.7484 y y y y y y y y 
   27   59   17  1.931e-06  3.320e-05 10.7484 y y y y y y y y 
   28   61   17  1.919e-06  3.296e-05 10.7484 y y y y y y y y 
   29   63   17  1.921e-06  3.299e-05 10.7484 y y y y y y y y 
   30   65   17  1.927e-06  3.315e-05 10.7484 y y y y y y y y 
   31   67   17  1.931e-06  3.321e-05 10.7484 y y y y y y y y 
   32   69   17  1.916e-06  3.288e-05 10.7484 y y y y y y y y 
   33   70   17  1.922e-06  3.299e-05 10.7484 y y y y y y y y 
   34   71   17  1.920e-06  3.297e-05 10.7484 y y y y y y y y 
   35   71   17  1.920e-06  3.297e-05 10.7484 y y y y y y y y 
   36   71   17  1.920e-06  3.297e-05 10.7484 y y y y y y y y 
   37   91   17  2.274e-06  3.862e-05 10.7484 y y y y y y y y 
   38   91   17  2.274e-06  3.862e-05 10.7484 y y y y y y y y 
   39   91   17  2.274e-06  3.862e-05 10.7484 y y y y y y y y 
   40  100   17  2.323e-06  3.939e-05 10.7484 y y y y y y y y 
   41   21   17  2.318e-06  3.931e-05 10.7484 y y y y y y y y Subspace collapsed.
   42   22   17  2.317e-06  3.929e-05 10.7484 y y y y y y y y 
   43   22   17  2.317e-06  3.929e-05 10.7484 y y y y y y y y 
   44   26   17  2.316e-06  3.926e-05 10.7484 y y y y y y y y 
   45   26   17  2.316e-06  3.926e-05 10.7484 y y y y y y y y 
   46   27   17  2.312e-06  3.919e-05 10.7484 y y y y y y y y 
   47   28   17  2.318e-06  3.929e-05 10.7484 y y y y y y y y 
   48   36   17  1.168e-06  1.951e-05 10.7484 y y y y y y y y 
   49   37   17  1.170e-06  1.954e-05 10.7484 y y y y y y y y 
   50   37   17  1.170e-06  1.954e-05 10.7484 y y y y y y y y 
   51   37   17  1.170e-06  1.954e-05 10.7484 y y y y y y y y 
   52   57   17  1.132e-06  1.864e-05 10.7484 y y y y y y y y 
   53   57   17  1.132e-06  1.864e-05 10.7484 y y y y y y y y 
   54   57   17  1.132e-06  1.864e-05 10.7484 y y y y y y y y 
   55   58   17  1.120e-06  1.842e-05 10.7484 y y y y y y y y 
   56   58   17  1.120e-06  1.842e-05 10.7484 y y y y y y y y 
   57   58   17  1.120e-06  1.842e-05 10.7484 y y y y y y y y 
   58   58   17  1.120e-06  1.842e-05 10.7484 y y y y y y y y 
   59   78   17  8.284e-07  1.285e-05 10.7484 y y y y y y y y 
--------------------------------------------------------------------------------
  Davidson Summary: 
 ------------------------------------------------------------
  State  0: excitation energy =  10.7484 a.u.   (converged)
  State  1: excitation energy =  10.9283 a.u.   (converged)
  State  2: excitation energy =  11.0233 a.u.   (converged)
  State  3: excitation energy =  11.1414 a.u.   (converged)
  State  4: excitation energy =  11.1462 a.u.   (converged)
  State  5: excitation energy =  11.2041 a.u.   (converged)
  State  6: excitation energy =  11.2175 a.u.   (converged)
  State  7: excitation energy =  11.2216 a.u.   (converged)
  State  8: excitation energy =  11.2918 a.u.   (converged)
  State  9: excitation energy =  11.5513 a.u.   (converged)
  State 10: excitation energy =  11.5629 a.u.   (converged)
  State 11: excitation energy =  11.5706 a.u.   (converged)
  State 12: excitation energy =  11.5723 a.u.   (converged)
  State 13: excitation energy =  11.5802 a.u.   (converged)
  State 14: excitation energy =  11.5852 a.u.   (converged)
  State 15: excitation energy =  11.5886 a.u.   (converged)
  State 16: excitation energy =  11.6035 a.u.   (converged)
  State 17: excitation energy =  12.1002 a.u.   (not converged)
  State 18: excitation energy =  12.1243 a.u.   (not converged)
  State 19: excitation energy =  12.1330 a.u.   (not converged)
 ------------------------------------------------------------


--------------------------------------------------------------------------------
                             Excited State Summary
--------------------------------------------------------------------------------

  Excited state  1 (A)                                             [converged]
  ----------------------------------------------------------------------------
  Term symbol:  2 (-) A                                     R^2 =  1.87245e-13

  Total energy:                                           -425.1103517080 a.u.
  Excitation energy:                                             292.478941 eV

  Osc. strength:                                                      0.000006
  Trans. dip. moment [a.u.]:           [   0.000737,   -0.000422,   -0.000304]
  <i|r^2|0> [a.u.]:                    [  -0.003534,   -0.002364,    0.000196]

  V1^2 = 0.8650, V2^2 = 0.1350

  Important amplitudes:
     core i     occ j      vir a      vir b          v   
    ------------------------------------------------------
     5 (A) B              21 (A) B                 0.9274
     5 (A) B   10 (A) A   22 (A) A   21 (A) B      0.0769
    ------------------------------------------------------
  ----------------------------------------------------------------------------


  Excited state  2 (A)                                             [converged]
  ----------------------------------------------------------------------------
  Term symbol:  3 (-) A                                     R^2 =  1.71932e-13

  Total energy:                                           -424.9304467138 a.u.
  Excitation energy:                                             297.374405 eV

  Osc. strength:                                                      0.001702
  Trans. dip. moment [a.u.]:           [  -0.004986,   -0.013499,    0.005148]
  <i|r^2|0> [a.u.]:                    [   0.014256,   -0.121994,    0.000986]

  V1^2 = 0.9607, V2^2 = 0.0393

  Important amplitudes:
     core i     occ j      vir a      vir b          v   
    ------------------------------------------------------
     5 (A) A              22 (A) A                -0.7287
     5 (A) B              22 (A) B                 0.5737
    ------------------------------------------------------
  ----------------------------------------------------------------------------


  Excited state  3 (A)                                             [converged]
  ----------------------------------------------------------------------------
  Term symbol:  4 (-) A                                     R^2 =  4.77624e-13

  Total energy:                                           -424.8354984881 a.u.
  Excitation energy:                                             299.958078 eV

  Osc. strength:                                                      0.121335
  Trans. dip. moment [a.u.]:           [  -0.043232,   -0.113789,    0.041156]
  <i|r^2|0> [a.u.]:                    [   0.121566,   -1.032443,    0.006751]

  V1^2 = 0.9559, V2^2 = 0.0441

  Important amplitudes:
     core i     occ j      vir a      vir b          v   
    ------------------------------------------------------
     5 (A) B              22 (A) B                -0.7339
     5 (A) A              22 (A) A                -0.5802
    ------------------------------------------------------
  ----------------------------------------------------------------------------


  Excited state  4 (A)                                             [converged]
  ----------------------------------------------------------------------------
  Term symbol:  5 (-) A                                     R^2 =  2.17907e-13

  Total energy:                                           -424.7173262934 a.u.
  Excitation energy:                                             303.173707 eV

  Osc. strength:                                                      0.000636
  Trans. dip. moment [a.u.]:           [  -0.007689,    0.004004,    0.003231]
  <i|r^2|0> [a.u.]:                    [   0.020250,    0.036167,   -0.000579]

  V1^2 = 0.9526, V2^2 = 0.0474

  Important amplitudes:
     core i     occ j      vir a      vir b          v   
    ------------------------------------------------------
     5 (A) A              23 (A) A                -0.6254
     5 (A) B              25 (A) B                 0.5439
    ------------------------------------------------------
  ----------------------------------------------------------------------------


  Excited state  5 (A)                                             [converged]
  ----------------------------------------------------------------------------
  Term symbol:  6 (-) A                                     R^2 =  1.38100e-13

  Total energy:                                           -424.7125168345 a.u.
  Excitation energy:                                             303.304579 eV

  Osc. strength:                                                      0.000013
  Trans. dip. moment [a.u.]:           [   0.000752,    0.000953,    0.000504]
  <i|r^2|0> [a.u.]:                    [  -0.001879,    0.008812,    0.000045]

  V1^2 = 0.9533, V2^2 = 0.0467

  Important amplitudes:
     core i     occ j      vir a      vir b          v   
    ------------------------------------------------------
     5 (A) B              24 (A) B                 0.5544
     5 (A) A              25 (A) A                 0.5418
    ------------------------------------------------------
  ----------------------------------------------------------------------------


  Excited state  6 (A)                                             [converged]
  ----------------------------------------------------------------------------
  Term symbol:  7 (-) A                                     R^2 =  6.45514e-13

  Total energy:                                           -424.6547050126 a.u.
  Excitation energy:                                             304.877718 eV

  Osc. strength:                                                      0.000211
  Trans. dip. moment [a.u.]:           [   0.003154,    0.003326,    0.002696]
  <i|r^2|0> [a.u.]:                    [  -0.007824,    0.030950,    0.000285]

  V1^2 = 0.9341, V2^2 = 0.0659

  Important amplitudes:
     core i     occ j      vir a      vir b          v   
    ------------------------------------------------------
     5 (A) A              24 (A) A                 0.5699
     5 (A) B              23 (A) B                -0.5448
    ------------------------------------------------------
  ----------------------------------------------------------------------------


  Excited state  7 (A)                                             [converged]
  ----------------------------------------------------------------------------
  Term symbol:  8 (-) A                                     R^2 =  6.45635e-14

  Total energy:                                           -424.6412224076 a.u.
  Excitation energy:                                             305.244599 eV

  Osc. strength:                                                      0.115811
  Trans. dip. moment [a.u.]:           [   0.102782,   -0.054805,   -0.043800]
  <i|r^2|0> [a.u.]:                    [  -0.269220,   -0.497000,    0.008013]

  V1^2 = 0.9444, V2^2 = 0.0556

  Important amplitudes:
     core i     occ j      vir a      vir b          v   
    ------------------------------------------------------
     5 (A) B              25 (A) B                 0.6619
     5 (A) A              23 (A) A                 0.5636
    ------------------------------------------------------
  ----------------------------------------------------------------------------


  Excited state  8 (A)                                             [converged]
  ----------------------------------------------------------------------------
  Term symbol:  9 (-) A                                     R^2 =  2.49525e-13

  Total energy:                                           -424.6371993007 a.u.
  Excitation energy:                                             305.354073 eV

  Osc. strength:                                                      0.115800
  Trans. dip. moment [a.u.]:           [   0.056731,    0.019300,    0.109034]
  <i|r^2|0> [a.u.]:                    [  -0.147512,    0.175536,   -0.004330]

  V1^2 = 0.9454, V2^2 = 0.0546

  Important amplitudes:
     core i     occ j      vir a      vir b          v   
    ------------------------------------------------------
     5 (A) B              24 (A) B                -0.5875
     5 (A) A              25 (A) A                 0.5736
    ------------------------------------------------------
  ----------------------------------------------------------------------------


  Excited state  9 (A)                                             [converged]
  ----------------------------------------------------------------------------
  Term symbol:  10 (-) A                                    R^2 =  3.95945e-13

  Total energy:                                           -424.5669566234 a.u.
  Excitation energy:                                             307.265473 eV

  Osc. strength:                                                      0.010115
  Trans. dip. moment [a.u.]:           [   0.009841,    0.031623,   -0.015710]
  <i|r^2|0> [a.u.]:                    [  -0.002615,    0.316951,    0.023460]

  V1^2 = 0.9182, V2^2 = 0.0818

  Important amplitudes:
     core i     occ j      vir a      vir b          v   
    ------------------------------------------------------
     5 (A) B              23 (A) B                 0.6190
     5 (A) A              24 (A) A                 0.5724
    ------------------------------------------------------
  ----------------------------------------------------------------------------


  Excited state 10 (A)                                             [converged]
  ----------------------------------------------------------------------------
  Term symbol:  11 (-) A                                    R^2 =  2.39968e-13

  Total energy:                                           -424.3074363089 a.u.
  Excitation energy:                                             314.327380 eV

  Osc. strength:                                                      0.000552
  Trans. dip. moment [a.u.]:           [  -0.003834,   -0.007446,    0.001249]
  <i|r^2|0> [a.u.]:                    [   0.013014,   -0.064664,    0.003063]

  V1^2 = 0.8950, V2^2 = 0.1050

  Important amplitudes:
     core i     occ j      vir a      vir b          v   
    ------------------------------------------------------
     5 (A) A              26 (A) A                 0.7186
     5 (A) B              26 (A) B                -0.3959
    ------------------------------------------------------
  ----------------------------------------------------------------------------


  Excited state 11 (A)                                             [converged]
  ----------------------------------------------------------------------------
  Term symbol:  12 (-) A                                    R^2 =  7.82806e-14

  Total energy:                                           -424.2958675974 a.u.
  Excitation energy:                                             314.642181 eV

  Osc. strength:                                                      0.005132
  Trans. dip. moment [a.u.]:           [  -0.021379,    0.011297,    0.009004]
  <i|r^2|0> [a.u.]:                    [   0.054699,    0.103420,   -0.001234]

  V1^2 = 0.8925, V2^2 = 0.1075

  Important amplitudes:
     core i     occ j      vir a      vir b          v   
    ------------------------------------------------------
     5 (A) A              27 (A) A                 0.7562
     5 (A) A              23 (A) A                 0.4298
    ------------------------------------------------------
  ----------------------------------------------------------------------------


  Excited state 12 (A)                                             [converged]
  ----------------------------------------------------------------------------
  Term symbol:  13 (-) A                                    R^2 =  1.16741e-13

  Total energy:                                           -424.2881107188 a.u.
  Excitation energy:                                             314.853256 eV

  Osc. strength:                                                      0.006966
  Trans. dip. moment [a.u.]:           [   0.013000,    0.026827,   -0.003790]
  <i|r^2|0> [a.u.]:                    [  -0.044902,    0.232650,   -0.011194]

  V1^2 = 0.8953, V2^2 = 0.1047

  Important amplitudes:
     core i     occ j      vir a      vir b          v   
    ------------------------------------------------------
     5 (A) B              26 (A) B                -0.6967
     5 (A) A              26 (A) A                -0.5163
    ------------------------------------------------------
  ----------------------------------------------------------------------------


  Excited state 13 (A)                                             [converged]
  ----------------------------------------------------------------------------
  Term symbol:  14 (-) A                                    R^2 =  5.05907e-13

  Total energy:                                           -424.2864618189 a.u.
  Excitation energy:                                             314.898125 eV

  Osc. strength:                                                      0.000457
  Trans. dip. moment [a.u.]:           [   0.002376,   -0.001299,    0.007209]
  <i|r^2|0> [a.u.]:                    [  -0.004866,   -0.010598,    0.000470]

  V1^2 = 0.8923, V2^2 = 0.1077

  Important amplitudes:
     core i     occ j      vir a      vir b          v   
    ------------------------------------------------------
     5 (A) A              28 (A) A                -0.6312
     5 (A) B              28 (A) B                 0.4953
    ------------------------------------------------------
  ----------------------------------------------------------------------------


  Excited state 14 (A)                                             [converged]
  ----------------------------------------------------------------------------
  Term symbol:  15 (-) A                                    R^2 =  4.19967e-13

  Total energy:                                           -424.2785412587 a.u.
  Excitation energy:                                             315.113655 eV

  Osc. strength:                                                      0.000135
  Trans. dip. moment [a.u.]:           [   0.002414,    0.003350,    0.000623]
  <i|r^2|0> [a.u.]:                    [  -0.009243,    0.027362,   -0.003102]

  V1^2 = 0.8934, V2^2 = 0.1066

  Important amplitudes:
     core i     occ j      vir a      vir b          v   
    ------------------------------------------------------
     5 (A) A              29 (A) A                 0.5653
     5 (A) B              29 (A) B                -0.4588
    ------------------------------------------------------
  ----------------------------------------------------------------------------


  Excited state 15 (A)                                             [converged]
  ----------------------------------------------------------------------------
  Term symbol:  16 (-) A                                    R^2 =  3.59732e-12

  Total energy:                                           -424.2735983912 a.u.
  Excitation energy:                                             315.248157 eV

  Osc. strength:                                                      0.024183
  Trans. dip. moment [a.u.]:           [  -0.046149,    0.024776,    0.019684]
  <i|r^2|0> [a.u.]:                    [   0.117915,    0.226453,   -0.002575]

  V1^2 = 0.8917, V2^2 = 0.1083

  Important amplitudes:
     core i     occ j      vir a      vir b          v   
    ------------------------------------------------------
     5 (A) B              27 (A) B                 0.7844
     5 (A) B              25 (A) B                 0.3703
    ------------------------------------------------------
  ----------------------------------------------------------------------------


  Excited state 16 (A)                                             [converged]
  ----------------------------------------------------------------------------
  Term symbol:  17 (-) A                                    R^2 =  4.91210e-13

  Total energy:                                           -424.2701193654 a.u.
  Excitation energy:                                             315.342826 eV

  Osc. strength:                                                      0.028933
  Trans. dip. moment [a.u.]:           [   0.027162,    0.007683,    0.054297]
  <i|r^2|0> [a.u.]:                    [  -0.068163,    0.071542,   -0.004337]

  V1^2 = 0.8947, V2^2 = 0.1053

  Important amplitudes:
     core i     occ j      vir a      vir b          v   
    ------------------------------------------------------
     5 (A) B              28 (A) B                -0.6627
     5 (A) A              28 (A) A                -0.5246
    ------------------------------------------------------
  ----------------------------------------------------------------------------


  Excited state 17 (A)                                             [converged]
  ----------------------------------------------------------------------------
  Term symbol:  18 (-) A                                    R^2 =  2.46509e-13

  Total energy:                                           -424.2553049312 a.u.
  Excitation energy:                                             315.745947 eV

  Osc. strength:                                                      0.015869
  Trans. dip. moment [a.u.]:           [  -0.014083,   -0.039795,    0.016415]
  <i|r^2|0> [a.u.]:                    [   0.021056,   -0.378745,   -0.016540]

  V1^2 = 0.8988, V2^2 = 0.1012

  Important amplitudes:
     core i     occ j      vir a      vir b          v   
    ------------------------------------------------------
     5 (A) B              29 (A) B                 0.6426
     5 (A) A              29 (A) A                 0.5920
    ------------------------------------------------------
  ----------------------------------------------------------------------------


  Excited state 18 (A)                                         [not converged]
  ----------------------------------------------------------------------------
  Term symbol:  19 (-) A                                    R^2 =  1.28486e-05

  Total energy:                                           -423.7585463221 a.u.
  Excitation energy:                                             329.263436 eV


  V1^2 = 0.8853, V2^2 = 0.1147

  Important amplitudes:
     core i     occ j      vir a      vir b          v   
    ------------------------------------------------------
     5 (A) A              30 (A) A                 0.9187
     5 (A) A              36 (A) A                -0.1649
    ------------------------------------------------------
  ----------------------------------------------------------------------------


  Excited state 19 (A)                                         [not converged]
  ----------------------------------------------------------------------------
  Term symbol:  20 (-) A                                    R^2 =  2.05924e-06

  Total energy:                                           -423.7344300521 a.u.
  Excitation energy:                                             329.919673 eV


  V1^2 = 0.8875, V2^2 = 0.1125

  Important amplitudes:
     core i     occ j      vir a      vir b          v   
    ------------------------------------------------------
     5 (A) A              32 (A) A                 0.9075
     5 (A) A              37 (A) A                -0.1607
    ------------------------------------------------------
  ----------------------------------------------------------------------------


  Excited state 20 (A)                                         [not converged]
  ----------------------------------------------------------------------------
  Term symbol:  21 (-) A                                    R^2 =  1.02568e-05

  Total energy:                                           -423.7257319478 a.u.
  Excitation energy:                                             330.156361 eV


  V1^2 = 0.8880, V2^2 = 0.1120

  Important amplitudes:
     core i     occ j      vir a      vir b          v   
    ------------------------------------------------------
     5 (A) B              30 (A) B                -0.9099
     5 (A) B              36 (A) B                 0.1586
    ------------------------------------------------------
  ----------------------------------------------------------------------------


--------------------------------------------------------------------------------
  Time of ADC calculation:  CPU 1301.24 s  wall 1325.30 s
================================================================================
 
 --------------------------------------------------------------
 
                    Orbital Energies (a.u.)
 --------------------------------------------------------------
 
 Alpha MOs
 -- Occupied --
-26.952 -26.679 -26.679 -26.670 -11.930  -2.248  -2.077  -1.988
 -1.984  -1.386  -1.362  -1.265  -1.235  -1.162  -1.150  -1.040
 -1.021  -1.018  -0.984  -0.980  -0.960
 -- Virtual --
 -0.012   0.149   0.157   0.162   0.338   0.395   0.404   0.429
  0.917   0.940   0.948   1.043   1.044   1.115   1.183   1.221
  1.298   1.304   1.351   1.363   1.364   1.382   1.444   1.489
  1.493   1.716   1.722   1.816   1.818   1.824   1.827   1.935
  1.952   1.968   1.982   1.992   2.047   2.054   2.109   2.276
  2.471   2.651   2.672   2.874   2.878   2.950   3.153   3.155
  3.196   4.154   4.400   4.574   4.593   6.008
 
 Beta MOs
 -- Occupied --
-26.899 -26.678 -26.677 -26.670 -11.931  -2.131  -2.007  -1.983
 -1.983  -1.349  -1.226  -1.225  -1.171  -1.135  -1.021  -1.019
 -1.012  -0.984  -0.978  -0.958
 -- Virtual --
 -0.411   0.007   0.159   0.162   0.179   0.344   0.402   0.404
  0.429   0.958   0.961   1.003   1.045   1.046   1.120   1.231
  1.267   1.307   1.328   1.351   1.363   1.367   1.394   1.450
  1.532   1.534   1.751   1.752   1.817   1.828   1.828   1.830
  1.959   1.960   1.985   1.996   2.001   2.057   2.064   2.109
  2.281   2.486   2.662   2.674   2.877   2.878   2.967   3.154
  3.155   3.197   4.175   4.402   4.576   4.595   6.012
 --------------------------------------------------------------
 
          Ground-State Mulliken Net Atomic Charges

     Atom                 Charge (a.u.)    Spin (a.u.)
  --------------------------------------------------------
      1 C                     1.352563      -0.045710
      2 F                    -0.205851       0.021711
      3 F                    -0.205982       0.020133
      4 F                     0.263951       1.006819
      5 F                    -0.204682      -0.002954
  --------------------------------------------------------
  Sum of atomic charges =     1.000000
  Sum of spin   charges =     1.000000

 -----------------------------------------------------------------
                    Cartesian Multipole Moments
 -----------------------------------------------------------------
    Charge (ESU x 10^10)
                 4.8032
    Dipole Moment (Debye)
         X      -4.2874      Y       8.7837      Z       0.9463
       Tot       9.8199
    Quadrupole Moments (Debye-Ang)
        XX     -17.5576     XY      -7.1669     YY      -3.6433
        XZ      -1.3801     YZ       1.0177     ZZ     -21.7028
    Octopole Moments (Debye-Ang^2)
       XXX      40.3842    XXY     -45.3541    XYY       1.8377
       YYY    -114.2069    XXZ       2.2196    XYZ      -1.8197
       YYZ       0.9651    XZZ      14.5589    YZZ     -51.8503
       ZZZ       0.7223
    Hexadecapole Moments (Debye-Ang^3)
      XXXX    -125.8171   XXXY     101.4039   XXYY    -146.6451
      XYYY      80.8415   YYYY    -707.1222   XXXZ      -3.6566
      XXYZ       3.1626   XYYZ      -2.8845   YYYZ       0.9526
      XXZZ     -33.3263   XYZZ      35.0189   YYZZ    -146.6276
      XZZZ      -0.4703   YZZZ       1.1249   ZZZZ     -70.6013
 -----------------------------------------------------------------
Archival summary:
1\1\tp-linux1\SP\HF\6-31G*\41(1+,2)\thomas\WedMar2212:37:442017WedMar2212:37:442017\0\\#,HF,6-31G*,\\1,2\C\F,1,1.26749\F,1,1.27277,2,112.991\F,1,1.27298,2,112.979,3,129.439,0\F,1,1.40985,2,106.129,3,-115.296,0\\HF=-435.107352\\@

 Total job time:  1356.18s(wall), 1311.98s(cpu) 
 Wed Mar 22 12:37:44 2017

        *************************************************************
        *                                                           *
        *  Thank you very much for using Q-Chem.  Have a nice day.  *
        *                                                           *
        *************************************************************


0 sent ACK to 0 
now end server 0 ... 
cleanup process ... done
