
Running Job 1 of 1 ddtraj1t1.inp
qchem ddtraj1t1.inp_18920.0 /scratch/qchem/qchem18920/ 1
/mnt/software/qchem/bin/mpi/mpirun_qchem -machinefile /mnt/software/qchem/bin/mpi/machines -np 1 /mnt/software/qchem/exe/qcprog.exe ddtraj1t1.inp_18920.0 /scratch/qchem/qchem18920/

Process 0 of 1 is on tp-linux1 - thread support 0
initial socket setup ...start
initial socket setup ...done 
now start server 0 ... 

cmd = ssh tp-linux1 /mnt/software/qchem/bin/get_hostid 518150378 > /scratch/qchem/qchem18920/lic.dat
                  Welcome to Q-Chem
     A Quantum Leap Into The Future Of Chemistry


 Q-Chem 4.3, Q-Chem, Inc., Pleasanton, CA (2015)

 Y. Shao,  Z. Gan,  E. Epifanovsky,  A. T. B. Gilbert,  M. Wormit,  
 J. Kussmann,  A. W. Lange,  A. Behn,  J. Deng,  X. Feng,  D. Ghosh,  
 M. Goldey,  P. R. Horn,  L. D. Jacobson,  I. Kaliman,  R. Z. Khaliullin,  
 T. Kus,  A. Landau,  J. Liu,  E. I. Proynov,  Y. M. Rhee,  R. M. Richard,  
 M. A. Rohrdanz,  R. P. Steele,  E. J. Sundstrom,  H. L. Woodcock III,  
 P. M. Zimmerman,  D. Zuev,  B. Albrecht,  E. Alguire,  B. Austin,  
 S. A. Baeppler,  G. J. O. Beran,  Y. A. Bernard,  E. Berquist,  
 K. Brandhorst,  K. B. Bravaya,  S. T. Brown,  D. Casanova,  C.-M. Chang,  
 Y. Chen,  S. H. Chien,  K. D. Closser,  D. L. Crittenden,  M. Diedenhofen,  
 R. A. DiStasio Jr.,  H. Do,  A. D. Dutoi,  R. G. Edgar,  P.-T. Fang,  
 S. Fatehi,  Q. Feng,  L. Fusti-Molnar,  A. Ghysels,  
 A. Golubeva-Zadorozhnaya,  J. Gomes,  A. Gunina,  M. W. D. Hanson-Heine,  
 P. H. P. Harbach,  A. W. Hauser,  E. G. Hohenstein,  Z. C. Holden,  K. Hui,  
 T.-C. Jagau,  H. Ji,  B. Kaduk,  K. Khistyaev,  Jaehoon Kim,  Jihan Kim,  
 R. A. King,  P. Klunzinger,  D. Kosenkov,  T. Kowalczyk,  C. M. Krauter,  
 K. U. Lao,  A. Laurent,  K. V. Lawler,  S. Lehtola,  S. V. Levchenko,  
 C. Y. Lin,  Y.-S. Lin,  F. Liu,  E. Livshits,  R. C. Lochan,  A. Luenser,  
 P. Manohar,  S. F. Manzer,  S.-P. Mao,  N. Mardirossian,  A. V. Marenich,  
 L. A. Martinez-Martinez,  S. A. Maurer,  N. J. Mayhall,  K. Nanda,  
 C. M. Oana,  R. Olivares-Amaya,  D. P. O'Neill,  J. A. Parkhill,  
 T. M. Perrine,  R. Peverati,  P. A. Pieniazek,  F. Plasser,  A. Prociuk,  
 D. R. Rehn,  E. Rosta,  N. J. Russ,  N. Sergueev,  S. M. Sharada,  
 S. Sharma,  D. W. Small,  A. Sodt,  T. Stauch,  T. Stein,  D. Stuck,  
 Y.-C. Su,  A. J. W. Thom,  T. Tsuchimochi,  L. Vogt,  O. Vydrov,  T. Wang,  
 M. A. Watson,  J. Wenzel,  A. White,  C. F. Williams,  V. Vanovschi,  
 S. Yeganeh,  S. R. Yost,  Z.-Q. You,  I. Y. Zhang,  X. Zhang,  Y. Zhao,  
 B. R. Brooks,  G. K. L. Chan,  D. M. Chipman,  C. J. Cramer,  
 W. A. Goddard III,  M. S. Gordon,  W. J. Hehre,  A. Klamt,  
 H. F. Schaefer III,  M. W. Schmidt,  C. D. Sherrill,  D. G. Truhlar,  
 A. Warshel,  X. Xu,  A. Aspuru-Guzik,  R. Baer,  A. T. Bell,  N. A. Besley,  
 J.-D. Chai,  A. Dreuw,  B. D. Dunietz,  T. R. Furlani,  S. R. Gwaltney,  
 C.-P. Hsu,  Y. Jung,  J. Kong,  D. S. Lambrecht,  W. Liang,  C. Ochsenfeld,  
 V. A. Rassolov,  L. V. Slipchenko,  J. E. Subotnik,  T. Van Voorhis,  
 J. M. Herbert,  A. I. Krylov,  P. M. W. Gill,  M. Head-Gordon

 Contributors to earlier versions of Q-Chem not listed above: 
 R. D. Adamson,  J. Baker,  E. F. C. Byrd,  A. K. Chakraborty,  C.-L. Cheng,  
 H. Dachsel,  R. J. Doerksen,  G. Hawkins,  A. Heyden,  S. Hirata,  
 G. Kedziora,  F. J. Keil,  C. Kelley,  P. P. Korambath,  W. Kurlancheek,  
 A. M. Lee,  M. S. Lee,  D. Liotard,  I. Lotan,  P. E. Maslen,  N. Nair,  
 D. Neuhauser,  R. Olson,  B. Peters,  J. Ritchie,  N. E. Schultz,  
 N. Shenvi,  A. C. Simmonett,  K. S. Thanthiriwatte,  Q. Wu,  W. Zhang

 Please cite Q-Chem as follows:
 Y. Shao et al., Mol. Phys. 113, 184-215 (2015)
 DOI: 10.1080/00268976.2014.952696

 Q-Chem 4.3.0 for Intel X86 Linux

 Parts of Q-Chem use Armadillo 5.200.1 (Boston Tea Smuggler).
 http://arma.sourceforge.net/

 Q-Chem begins on Wed Mar 22 11:06:27 2017  

Host: 
0

     Scratch files written to /scratch/qchem/qchem18920//
 Nov1815 1189b_ 19540  19532 5443   
 Parallel job on  1  processors
Processing $rem in /mnt/software/qchem/config/preferences.
 MEM_TOTAL  2000 

Checking the input file for inconsistencies... 	...done.

--------------------------------------------------------------
User input:
--------------------------------------------------------------
$comment
XAS calculation for valence excited states for CF4+ using cvs-adc(2) + 6-31G* basis set
job 1 - determination of HF orbitals
$end

$molecule
1 2
6  -0.69766  2.354462  -0.00202
9  0.601728  2.349249  0.000141
9  -1.133237  3.291845  0.785393
9  -1.133738  1.196432  0.424488
9  -1.133164  2.558137  -1.208747
$end

$comment
cvs-adc(2) calculation
$end

$rem
mem_total 3000
mem_static 1500
sym_ignore true
method cvs-adc(2)
basis 6-31G*
ee_singlets 20
cc_rest_occ 5                  !only excitations from the lowest N orbitals
unrestricted  true
max_scf_cycles 200
SCF_ALGORITHM = DIIS_GDM
SCF_CONVERGENCE = 7
THRESH = 10
$end
--------------------------------------------------------------
 ----------------------------------------------------------------
             Standard Nuclear Orientation (Angstroms)
    I     Atom           X                Y                Z
 ----------------------------------------------------------------
    1      C      -0.6976600000     2.3544620000    -0.0020200000
    2      F       0.6017280000     2.3492490000     0.0001410000
    3      F      -1.1332370000     3.2918450000     0.7853930000
    4      F      -1.1337380000     1.1964320000     0.4244880000
    5      F      -1.1331640000     2.5581370000    -1.2087470000
 ----------------------------------------------------------------
 Nuclear Repulsion Energy =   208.8064952846 hartrees
 There are       21 alpha and       20 beta electrons
 Requested basis set is 6-31G(d)
 There are 20 shells and 75 basis functions

 Total QAlloc Memory Limit   3000 MB
 Mega-Array Size      1467 MB
 MEM_STATIC part      1500 MB

                       Distance Matrix (Angstroms)
             C (  1)   F (  2)   F (  3)   F (  4)
   F (  2)  1.299400
   F (  3)  1.299397  2.124903
   F (  4)  1.308857  2.126241  2.126266
   F (  5)  1.298975  2.124828  2.124835  2.126428
 
 tim1(1): 
  0.000000000000000E+000
 tim1(2): 
  0.000000000000000E+000
 A cutoff of  1.0D-10 yielded    204 shell pairs
 There are      2979 function pairs
 
 -------------------------------------------------------
 OpenMP Integral Computing Module                       
 Release: version 1.0, May 2013, Q-Chem Inc. Pittsburgh 
 -------------------------------------------------------
 Integral Job Info:
 Integral job number is                      11
 Integral operator is                         1
 short-range coefficients                     0
 long-range coefficients              100000000
 Omega coefficients                           0
 if combine SR and LR in K                    0
 Integral screening is                        0
 Integral computing path is                   2
 max size of driver memory is            800000
 size of driver memory is                593474
 size of scratch memory is              2260544
 max col of scratch BK array               1296
 max len of scratch array in speh3          155
 max len of scratch index in speh4           18
 max int batch size is                      520
 min int batch size is                       52
 fixed nKL is                                52
 max L of basis functions is                  2
 order of int derivative is                   0
 number of shells is                         20
 number of basis is                          75
 number of cartesian basis is                75
 number of contracted shell pairs           204
 number of primitive shell pairs           1069
 maxK2 (contraction) of shell pair           36
 max number of K2 of shell pair               1
 max number of CS2 of shell pair             37
 max number of PS2 of shell pair            222
 mem total for path MDJ                   21832
 -------------------------------------------------------
 Smallest overlap matrix eigenvalue = 1.75E-03

 Scale SEOQF with 1.000000e+00/1.000000e-01/1.000000e+00

 Standard Electronic Orientation quadrupole field applied
 Nucleus-field energy     =     0.0000000108 hartrees
 Guess from superposition of atomic densities
 Warning:  Energy on first SCF cycle will be non-variational
 An unrestricted Hartree-Fock SCF calculation will be
 performed using Pulay DIIS + Geometric Direct Minimization
 SCF converges when RMS gradient is below 1.0E-07
 ---------------------------------------
  Cycle       Energy         DIIS Error
 ---------------------------------------
    1    -436.6425741002      8.95E-02
    2    -434.8142323166      1.83E-02
    3    -434.9822244664      8.16E-03 Done DIIS. Switching to GDM
    4    -435.0184778866      4.30E-02 Normal BFGS step
    5    -435.0262560482      8.00E-02 Dog-leg BFGS step
    6    -435.0462762057      8.00E-02 Normal BFGS step
    7    -435.0492067472      4.76E-02 Normal BFGS step
    8    -435.0653676432      2.77E-02 Normal BFGS step
    9    -435.0694595079      9.37E-03 Normal BFGS step
   10    -435.0706274342      4.75E-03 Normal BFGS step
   11    -435.0708630719      3.48E-03 Normal BFGS step
   12    -435.0709960416      3.36E-03 Normal BFGS step
   13    -435.0710499311      2.92E-03 Normal BFGS step
   14    -435.0710902416      1.97E-03 Normal BFGS step
   15    -435.0711093940      1.06E-03 Normal BFGS step
   16    -435.0711177870      3.60E-04 Normal BFGS step
   17    -435.0711197509      2.12E-04 Normal BFGS step
   18    -435.0711201477      7.29E-05 Normal BFGS step
   19    -435.0711202265      3.77E-05 Normal BFGS step
   20    -435.0711202446      3.57E-05 Normal BFGS step
   21    -435.0711202503      3.37E-05 Normal BFGS step
   22    -435.0711202542      3.24E-05 Normal BFGS step
   23    -435.0711202614      3.07E-05 Normal BFGS step
   24    -435.0711202770      2.84E-05 Normal BFGS step
   25    -435.0711203161      4.23E-05 Normal BFGS step
   26    -435.0711204145      6.92E-05 Normal BFGS step
   27    -435.0711206715      1.12E-04 Normal BFGS step
   28    -435.0711213486      1.92E-04 Normal BFGS step
   29    -435.0711225403      3.22E-04 Normal BFGS step
   30    -435.0711242360      3.00E-04 Normal BFGS step
   31    -435.0711302581      2.91E-04 Normal BFGS step
   32    -435.0711259743      4.89E-04 Line search: overstep
   33    -435.0711305901      1.90E-04 Normal BFGS step
   34    -435.0711310644      1.24E-04 Normal BFGS step
   35    -435.0711317491      1.33E-04 Normal BFGS step
   36    -435.0711320329      9.98E-05 Normal BFGS step
   37    -435.0711322201      4.47E-05 Normal BFGS step
   38    -435.0711322621      3.47E-05 Normal BFGS step
   39    -435.0711322765      2.77E-05 Normal BFGS step
   40    -435.0711322814      2.27E-05 Normal BFGS step
   41    -435.0711322844      1.28E-05 Normal BFGS step
   42    -435.0711322853      7.51E-06 Normal BFGS step
   43    -435.0711322859      3.21E-06 Normal BFGS step
   44    -435.0711322861      1.39E-06 Normal BFGS step
   45    -435.0711322861      5.36E-07 Normal BFGS step
   46    -435.0711322861      1.86E-07 Normal BFGS step
   47    -435.0711322861      6.82E-08 Convergence criterion met
 ---------------------------------------
 <S^2> = 0.7564
 SCF time:  CPU 7.96 s  wall 10.75 s
 SCF   energy in the final basis set = -435.0711322861
 Total energy in the final basis set = -435.0711322861
================================================================================
|                                                                              |
|                                 A D C  M A N                                 |
|                                                                              |
 ------------------------------------------------------------------------------ 
|                                                                              |
| Components:                                                                  |
|                                                                              |
| - libvmm - 1.2-release                                                       |
|   Authors:                                                                   |
|   Evgeny Epifanovsky, Ilya Kaliman                                           |
|                                                                              |
| - libtensor - 2.4-trunk                                                      |
|   Authors:                                                                   |
|   Evgeny Epifanovsky, Michael Wormit, Dmitry Zuev, Sam Manzer                |
|                                                                              |
| - libwfa - 1.1-beta                                                          |
|   Authors:                                                                   |
|   Felix Plasser, Stefanie Baeppler, Benjamin Thomitzni, Michael Wormit       |
|                                                                              |
| - libadc - 1.0-beta                                                          |
|   Authors:                                                                   |
|   Michael Wormit, Philipp H. P. Harbach, Caroline Krauter, Dirk Rehn,        |
|   Matthias Schneider, Jan Wenzel                                             |
|                                                                              |
| - adcman - 2.4-beta                                                          |
|   Authors:                                                                   |
|   Michael Wormit, Philipp H. P. Harbach, Caroline Krauter, Dirk Rehn,        |
|   Jan Wenzel, Andreas Dreuw                                                  |
|                                                                              |
| Authors of earlier versions of ADCMAN:                                       |
| Andreas Dreuw, Jan Hendrik Starcke, Dirk Rehn, Michael Wormit                |
|                                                                              |
================================================================================

 
 Alpha MOs, Unrestricted
 -- Occupied --                  
-27.004 -26.681 -26.659 -26.659 -11.930  -2.315  -2.059  -1.971
  1 A     2 A     3 A     4 A     5 A     6 A     7 A     8 A                  
 -1.958  -1.440  -1.414  -1.315  -1.229  -1.141  -1.129  -1.036
  9 A    10 A    11 A    12 A    13 A    14 A    15 A    16 A                  
 -1.010  -1.008  -0.969  -0.964  -0.947
 17 A    18 A    19 A    20 A    21 A                                          
 -- Virtual --                   
  0.045   0.113   0.124   0.178   0.321   0.378   0.386   0.431
 22 A    23 A    24 A    25 A    26 A    27 A    28 A    29 A                  
  0.908   0.920   0.948   1.044   1.051   1.134   1.162   1.197
 30 A    31 A    32 A    33 A    34 A    35 A    36 A    37 A                  
  1.304   1.313   1.357   1.358   1.389   1.390   1.447   1.447
 38 A    39 A    40 A    41 A    42 A    43 A    44 A    45 A                  
  1.509   1.713   1.714   1.823   1.836   1.843   1.875   1.926
 46 A    47 A    48 A    49 A    50 A    51 A    52 A    53 A                  
  1.930   1.937   1.953   1.972   2.073   2.080   2.124   2.285
 54 A    55 A    56 A    57 A    58 A    59 A    60 A    61 A                  
  2.580   2.615   2.623   2.841   2.847   3.004   3.121   3.130
 62 A    63 A    64 A    65 A    66 A    67 A    68 A    69 A                  
  3.135   4.314   4.403   4.473   4.479   6.005
 70 A    71 A    72 A    73 A    74 A    75 A                                  
 
 Beta MOs, Unrestricted
 -- Occupied --                  
-26.952 -26.677 -26.658 -26.658 -11.932  -2.166  -2.026  -1.961
  1 A     2 A     3 A     4 A     5 A     6 A     7 A     8 A                  
 -1.956  -1.394  -1.269  -1.221  -1.152  -1.120  -1.013  -1.003
  9 A    10 A    11 A    12 A    13 A    14 A    15 A    16 A                  
 -0.999  -0.968  -0.961  -0.945
 17 A    18 A    19 A    20 A                                                  
 -- Virtual --                   
 -0.465   0.068   0.124   0.150   0.179   0.328   0.385   0.386
 21 A    22 A    23 A    24 A    25 A    26 A    27 A    28 A                  
  0.432   0.927   0.960   1.002   1.053   1.053   1.139   1.205
 29 A    30 A    31 A    32 A    33 A    34 A    35 A    36 A                  
  1.244   1.316   1.327   1.359   1.367   1.390   1.392   1.488
 37 A    38 A    39 A    40 A    41 A    42 A    43 A    44 A                  
  1.491   1.516   1.742   1.747   1.825   1.840   1.845   1.889
 45 A    46 A    47 A    48 A    49 A    50 A    51 A    52 A                  
  1.938   1.938   1.963   1.974   1.980   2.082   2.082   2.124
 53 A    54 A    55 A    56 A    57 A    58 A    59 A    60 A                  
  2.291   2.597   2.626   2.627   2.847   2.847   3.020   3.124
 61 A    62 A    63 A    64 A    65 A    66 A    67 A    68 A                  
  3.132   3.135   4.334   4.403   4.476   4.481   6.010
 69 A    70 A    71 A    72 A    73 A    74 A    75 A                          
 

--------------------------------------------------------------------------------
                                   HF Summary                                   
--------------------------------------------------------------------------------
  Energy:                                                 -435.0711322861 a.u.
  Dip. moment [a.u.]:                  [ -53.687163,  183.303138,   -0.406502]
  Total dipole [Debye]:                                             485.483762
  <r^2> [a.u.]:                        [ 159.048235,  905.798105,   88.348196]
  Total <r^2> [a.u.]:                                              1153.194536
--------------------------------------------------------------------------------

--------------------------------------------------------------------------------
                                 MP(2) Summary                                  
--------------------------------------------------------------------------------
  Energy contribution:                                      -0.7577999281 a.u.
  Total energy:                                           -435.8289322142 a.u.
  Dip. moment [a.u.]:                  [ -53.739565,  183.122241,   -0.304628]
  Total dipole [Debye]:                                             485.079530
  <r^2> [a.u.]:                        [ 159.014176,  904.290259,   88.100078]
  Total <r^2> [a.u.]:                                              1151.404513
--------------------------------------------------------------------------------
  Starting Davidson ... 
--------------------------------------------------------------------------------
   It NVec Conv  Avg. Norm  Max. Norm  Conv. states           Remark
--------------------------------------------------------------------------------
        20    0  2.125e-01  1.133e+00 11.1027 n n n n n n n n Guess.
    1   40    0  3.427e-02  3.414e-01 10.6921 n n n n n n n n 
    2   60    0  7.731e-03  8.407e-02 10.6878 n n n n n n n n 
    3   80    0  2.205e-03  2.411e-02 10.6874 n n n n n n n n 
    4  100    0  9.856e-04  1.258e-02 10.6874 n n n n n n n n 
    5   40    0  9.283e-04  1.275e-02 10.6874 n n n n n n n n Subspace collapsed.
    6   60    0  5.769e-04  9.062e-03 10.6874 n n n n n n n n 
    7   80    0  5.377e-04  9.561e-03 10.6874 n n n n n n n n 
    8  100    1  3.295e-04  6.190e-03 10.6874 n n n n y n n n 
    9   40    7  1.871e-04  3.560e-03 10.6874 y y y n y y y y Subspace collapsed.
   10   60    8  1.142e-04  2.169e-03 10.6874 y y y y y y y y 
   11   80    9  7.171e-05  1.381e-03 10.6874 y y y y y y y y 
   12  100   15  5.307e-05  1.042e-03 10.6874 y y y y y y y y 
   13   40   17  5.017e-05  9.873e-04 10.6874 y y y y y y y y Subspace collapsed.
   14   60   17  4.188e-05  8.306e-04 10.6874 y y y y y y y y 
   15   80   17  4.213e-05  8.400e-04 10.6874 y y y y y y y y 
   16  100   17  3.085e-05  6.153e-04 10.6874 y y y y y y y y 
   17   40   17  1.738e-05  3.470e-04 10.6874 y y y y y y y y Subspace collapsed.
   18   58   17  1.080e-05  2.155e-04 10.6874 y y y y y y y y 
   19   60   17  1.084e-05  2.162e-04 10.6874 y y y y y y y y 
   20   60   17  1.084e-05  2.162e-04 10.6874 y y y y y y y y 
   21   80   17  6.866e-06  1.371e-04 10.6874 y y y y y y y y 
   22   92   17  6.823e-06  1.363e-04 10.6874 y y y y y y y y 
   23  100   17  7.009e-06  1.400e-04 10.6874 y y y y y y y y 
   24   32   17  5.069e-06  1.012e-04 10.6874 y y y y y y y y Subspace collapsed.
   25   43   17  4.308e-06  8.607e-05 10.6874 y y y y y y y y 
   26   54   17  3.869e-06  7.730e-05 10.6874 y y y y y y y y 
   27   65   17  3.456e-06  6.894e-05 10.6874 y y y y y y y y 
   28   71   17  3.440e-06  6.861e-05 10.6874 y y y y y y y y 
   29   75   17  3.443e-06  6.866e-05 10.6874 y y y y y y y y 
   30   76   17  3.459e-06  6.899e-05 10.6874 y y y y y y y y 
   31   77   17  3.508e-06  6.996e-05 10.6874 y y y y y y y y 
   32   78   17  3.501e-06  6.983e-05 10.6874 y y y y y y y y 
   33   78   17  3.501e-06  6.983e-05 10.6874 y y y y y y y y 
   34   95   17  2.394e-06  4.727e-05 10.6874 y y y y y y y y 
   35   95   17  2.394e-06  4.727e-05 10.6874 y y y y y y y y 
   36   97   17  2.384e-06  4.708e-05 10.6874 y y y y y y y y 
   37   98   17  2.378e-06  4.696e-05 10.6874 y y y y y y y y 
   38   99   17  2.379e-06  4.699e-05 10.6874 y y y y y y y y 
   39  100   18  9.528e-07  1.789e-05 10.6874 y y y y y y y y 
   40   23   18  4.450e-07  8.213e-06 10.6874 y y y y y y y y Subspace collapsed.
   41   26   18  2.540e-07  4.560e-06 10.6874 y y y y y y y y 
   42   26   18  2.540e-07  4.560e-06 10.6874 y y y y y y y y 
   43   27   18  2.526e-07  4.542e-06 10.6874 y y y y y y y y 
   44   27   18  2.526e-07  4.542e-06 10.6874 y y y y y y y y 
   45   28   18  2.502e-07  4.487e-06 10.6874 y y y y y y y y 
   46   31   18  1.421e-07  2.440e-06 10.6874 y y y y y y y y 
   47   34   18  9.617e-08  1.538e-06 10.6874 y y y y y y y y 
   48   37   19  8.775e-08  1.471e-06 10.6874 y y y y y y y y 
   49   40   19  1.014e-07  1.847e-06 10.6874 y y y y y y y y 
   50   43   19  1.034e-07  1.955e-06 10.6874 y y y y y y y y 
   51   46   19  8.601e-08  1.635e-06 10.6874 y y y y y y y y 
   52   49   19  8.540e-08  1.657e-06 10.6874 y y y y y y y y 
   53   52   19  8.082e-08  1.589e-06 10.6874 y y y y y y y y 
   54   55   19  7.233e-08  1.433e-06 10.6874 y y y y y y y y 
   55   58   19  5.742e-08  1.141e-06 10.6874 y y y y y y y y 
   56   61   19  5.352e-08  1.066e-06 10.6874 y y y y y y y y 
   57   64   20  3.642e-08  7.262e-07 10.6874 y y y y y y y y Converged.
--------------------------------------------------------------------------------
  Davidson Summary: 
 ------------------------------------------------------------
  State  0: excitation energy =  10.6874 a.u.   (converged)
  State  1: excitation energy =  10.9973 a.u.   (converged)
  State  2: excitation energy =  11.0943 a.u.   (converged)
  State  3: excitation energy =  11.1019 a.u.   (converged)
  State  4: excitation energy =  11.1039 a.u.   (converged)
  State  5: excitation energy =  11.1774 a.u.   (converged)
  State  6: excitation energy =  11.1782 a.u.   (converged)
  State  7: excitation energy =  11.1935 a.u.   (converged)
  State  8: excitation energy =  11.2866 a.u.   (converged)
  State  9: excitation energy =  11.5159 a.u.   (converged)
  State 10: excitation energy =  11.5372 a.u.   (converged)
  State 11: excitation energy =  11.5515 a.u.   (converged)
  State 12: excitation energy =  11.5609 a.u.   (converged)
  State 13: excitation energy =  11.5745 a.u.   (converged)
  State 14: excitation energy =  11.5777 a.u.   (converged)
  State 15: excitation energy =  11.6015 a.u.   (converged)
  State 16: excitation energy =  11.6200 a.u.   (converged)
  State 17: excitation energy =  12.0956 a.u.   (converged)
  State 18: excitation energy =  12.1170 a.u.   (converged)
  State 19: excitation energy =  12.1274 a.u.   (converged)
 ------------------------------------------------------------


--------------------------------------------------------------------------------
                             Excited State Summary
--------------------------------------------------------------------------------

  Excited state  1 (A)                                             [converged]
  ----------------------------------------------------------------------------
  Term symbol:  2 (-) A                                     R^2 =  2.74658e-13

  Total energy:                                           -425.1415455305 a.u.
  Excitation energy:                                             290.818582 eV

  Osc. strength:                                                      0.000005
  Trans. dip. moment [a.u.]:           [  -0.000153,    0.000370,   -0.000777]
  <i|r^2|0> [a.u.]:                    [  -0.000804,    0.002462,    0.002114]

  V1^2 = 0.8704, V2^2 = 0.1296

  Important amplitudes:
     core i     occ j      vir a      vir b          v   
    ------------------------------------------------------
     5 (A) B              21 (A) B                -0.9302
     5 (A) B   10 (A) A   22 (A) A   21 (A) B     -0.0698
    ------------------------------------------------------
  ----------------------------------------------------------------------------


  Excited state  2 (A)                                             [converged]
  ----------------------------------------------------------------------------
  Term symbol:  3 (-) A                                     R^2 =  2.44008e-13

  Total energy:                                           -424.8316272031 a.u.
  Excitation energy:                                             299.251889 eV

  Osc. strength:                                                      0.002149
  Trans. dip. moment [a.u.]:           [  -0.006037,   -0.015237,    0.004946]
  <i|r^2|0> [a.u.]:                    [   0.018011,   -0.133904,    0.002002]

  V1^2 = 0.9585, V2^2 = 0.0415

  Important amplitudes:
     core i     occ j      vir a      vir b          v   
    ------------------------------------------------------
     5 (A) A              22 (A) A                -0.6888
     5 (A) B              22 (A) B                 0.5183
    ------------------------------------------------------
  ----------------------------------------------------------------------------


  Excited state  3 (A)                                             [converged]
  ----------------------------------------------------------------------------
  Term symbol:  4 (-) A                                     R^2 =  9.92068e-14

  Total energy:                                           -424.7346126855 a.u.
  Excitation energy:                                             301.891788 eV

  Osc. strength:                                                      0.116513
  Trans. dip. moment [a.u.]:           [  -0.042428,   -0.111217,    0.039795]
  <i|r^2|0> [a.u.]:                    [   0.124248,   -0.982249,    0.011979]

  V1^2 = 0.9529, V2^2 = 0.0471

  Important amplitudes:
     core i     occ j      vir a      vir b          v   
    ------------------------------------------------------
     5 (A) B              22 (A) B                -0.6821
     5 (A) A              22 (A) A                -0.5330
    ------------------------------------------------------
  ----------------------------------------------------------------------------


  Excited state  4 (A)                                             [converged]
  ----------------------------------------------------------------------------
  Term symbol:  5 (-) A                                     R^2 =  8.23477e-14

  Total energy:                                           -424.7269846166 a.u.
  Excitation energy:                                             302.099358 eV

  Osc. strength:                                                      0.004158
  Trans. dip. moment [a.u.]:           [  -0.002364,    0.012438,   -0.020039]
  <i|r^2|0> [a.u.]:                    [   0.005562,    0.110392,   -0.002100]

  V1^2 = 0.9515, V2^2 = 0.0485

  Important amplitudes:
     core i     occ j      vir a      vir b          v   
    ------------------------------------------------------
     5 (A) A              23 (A) A                -0.6806
     5 (A) B              24 (A) B                -0.5180
    ------------------------------------------------------
  ----------------------------------------------------------------------------


  Excited state  5 (A)                                             [converged]
  ----------------------------------------------------------------------------
  Term symbol:  6 (-) A                                     R^2 =  6.84372e-14

  Total energy:                                           -424.7250571212 a.u.
  Excitation energy:                                             302.151808 eV

  Osc. strength:                                                      0.000041
  Trans. dip. moment [a.u.]:           [   0.001948,   -0.000958,   -0.000918]
  <i|r^2|0> [a.u.]:                    [  -0.005254,   -0.008449,    0.000034]

  V1^2 = 0.9528, V2^2 = 0.0472

  Important amplitudes:
     core i     occ j      vir a      vir b          v   
    ------------------------------------------------------
     5 (A) A              24 (A) A                -0.6177
     5 (A) B              23 (A) B                 0.5960
    ------------------------------------------------------
  ----------------------------------------------------------------------------


  Excited state  6 (A)                                             [converged]
  ----------------------------------------------------------------------------
  Term symbol:  7 (-) A                                     R^2 =  1.42926e-13

  Total energy:                                           -424.6515282905 a.u.
  Excitation energy:                                             304.152629 eV

  Osc. strength:                                                      0.115283
  Trans. dip. moment [a.u.]:           [   0.101467,   -0.055203,   -0.046129]
  <i|r^2|0> [a.u.]:                    [  -0.274688,   -0.486620,    0.002906]

  V1^2 = 0.9452, V2^2 = 0.0548

  Important amplitudes:
     core i     occ j      vir a      vir b          v   
    ------------------------------------------------------
     5 (A) B              23 (A) B                -0.6414
     5 (A) A              24 (A) A                -0.6173
    ------------------------------------------------------
  ----------------------------------------------------------------------------


  Excited state  7 (A)                                             [converged]
  ----------------------------------------------------------------------------
  Term symbol:  8 (-) A                                     R^2 =  1.93000e-13

  Total energy:                                           -424.6507035539 a.u.
  Excitation energy:                                             304.175071 eV

  Osc. strength:                                                      0.112982
  Trans. dip. moment [a.u.]:           [  -0.057926,   -0.016758,   -0.107353]
  <i|r^2|0> [a.u.]:                    [   0.157577,   -0.146048,   -0.004461]

  V1^2 = 0.9433, V2^2 = 0.0567

  Important amplitudes:
     core i     occ j      vir a      vir b          v   
    ------------------------------------------------------
     5 (A) B              24 (A) B                 0.7106
     5 (A) A              23 (A) A                -0.5379
    ------------------------------------------------------
  ----------------------------------------------------------------------------


  Excited state  8 (A)                                             [converged]
  ----------------------------------------------------------------------------
  Term symbol:  9 (-) A                                     R^2 =  4.89513e-13

  Total energy:                                           -424.6354097689 a.u.
  Excitation energy:                                             304.591236 eV

  Osc. strength:                                                      0.000805
  Trans. dip. moment [a.u.]:           [   0.005947,    0.006662,    0.005305]
  <i|r^2|0> [a.u.]:                    [  -0.015553,    0.059885,    0.000807]

  V1^2 = 0.9343, V2^2 = 0.0657

  Important amplitudes:
     core i     occ j      vir a      vir b          v   
    ------------------------------------------------------
     5 (A) A              25 (A) A                 0.6082
     5 (A) B              25 (A) B                -0.5505
    ------------------------------------------------------
  ----------------------------------------------------------------------------


  Excited state  9 (A)                                             [converged]
  ----------------------------------------------------------------------------
  Term symbol:  10 (-) A                                    R^2 =  1.89155e-13

  Total energy:                                           -424.5423652709 a.u.
  Excitation energy:                                             307.123106 eV

  Osc. strength:                                                      0.014937
  Trans. dip. moment [a.u.]:           [  -0.016206,   -0.039763,    0.011895]
  <i|r^2|0> [a.u.]:                    [   0.019500,   -0.380530,   -0.023702]

  V1^2 = 0.9181, V2^2 = 0.0819

  Important amplitudes:
     core i     occ j      vir a      vir b          v   
    ------------------------------------------------------
     5 (A) B              25 (A) B                -0.6235
     5 (A) A              25 (A) A                -0.5821
    ------------------------------------------------------
  ----------------------------------------------------------------------------


  Excited state 10 (A)                                             [converged]
  ----------------------------------------------------------------------------
  Term symbol:  11 (-) A                                    R^2 =  1.37301e-12

  Total energy:                                           -424.3130315530 a.u.
  Excitation energy:                                             313.363594 eV

  Osc. strength:                                                      0.000571
  Trans. dip. moment [a.u.]:           [   0.002560,    0.007512,   -0.003369]
  <i|r^2|0> [a.u.]:                    [  -0.010587,    0.062959,   -0.003803]

  V1^2 = 0.8935, V2^2 = 0.1065

  Important amplitudes:
     core i     occ j      vir a      vir b          v   
    ------------------------------------------------------
     5 (A) A              26 (A) A                -0.7531
     5 (A) B              26 (A) B                -0.4162
    ------------------------------------------------------
  ----------------------------------------------------------------------------


  Excited state 11 (A)                                             [converged]
  ----------------------------------------------------------------------------
  Term symbol:  12 (-) A                                    R^2 =  3.23391e-13

  Total energy:                                           -424.2917647787 a.u.
  Excitation energy:                                             313.942292 eV

  Osc. strength:                                                      0.007016
  Trans. dip. moment [a.u.]:           [  -0.009798,   -0.026633,    0.010335]
  <i|r^2|0> [a.u.]:                    [   0.039436,   -0.223028,    0.013576]

  V1^2 = 0.8956, V2^2 = 0.1044

  Important amplitudes:
     core i     occ j      vir a      vir b          v   
    ------------------------------------------------------
     5 (A) B              26 (A) B                -0.7707
     5 (A) A              26 (A) A                 0.4578
    ------------------------------------------------------
  ----------------------------------------------------------------------------


  Excited state 12 (A)                                             [converged]
  ----------------------------------------------------------------------------
  Term symbol:  13 (-) A                                    R^2 =  9.02973e-13

  Total energy:                                           -424.2774383760 a.u.
  Excitation energy:                                             314.332133 eV

  Osc. strength:                                                      0.005391
  Trans. dip. moment [a.u.]:           [  -0.012748,   -0.004329,   -0.022778]
  <i|r^2|0> [a.u.]:                    [   0.034120,   -0.038043,    0.000640]

  V1^2 = 0.8916, V2^2 = 0.1084

  Important amplitudes:
     core i     occ j      vir a      vir b          v   
    ------------------------------------------------------
     5 (A) A              27 (A) A                 0.7876
     5 (A) A              23 (A) A                 0.3794
    ------------------------------------------------------
  ----------------------------------------------------------------------------


  Excited state 13 (A)                                             [converged]
  ----------------------------------------------------------------------------
  Term symbol:  14 (-) A                                    R^2 =  9.37769e-13

  Total energy:                                           -424.2680568762 a.u.
  Excitation energy:                                             314.587417 eV

  Osc. strength:                                                      0.000773
  Trans. dip. moment [a.u.]:           [  -0.008160,    0.004448,    0.003725]
  <i|r^2|0> [a.u.]:                    [   0.021530,    0.039564,   -0.000034]

  V1^2 = 0.8916, V2^2 = 0.1084

  Important amplitudes:
     core i     occ j      vir a      vir b          v   
    ------------------------------------------------------
     5 (A) A              28 (A) A                 0.6819
     5 (A) B              28 (A) B                -0.4894
    ------------------------------------------------------
  ----------------------------------------------------------------------------


  Excited state 14 (A)                                             [converged]
  ----------------------------------------------------------------------------
  Term symbol:  15 (-) A                                    R^2 =  5.00676e-13

  Total energy:                                           -424.2544174572 a.u.
  Excitation energy:                                             314.958565 eV

  Osc. strength:                                                      0.023315
  Trans. dip. moment [a.u.]:           [   0.025697,    0.006869,    0.048104]
  <i|r^2|0> [a.u.]:                    [  -0.067850,    0.061009,   -0.000450]

  V1^2 = 0.8906, V2^2 = 0.1094

  Important amplitudes:
     core i     occ j      vir a      vir b          v   
    ------------------------------------------------------
     5 (A) B              27 (A) B                -0.8113
     5 (A) A              27 (A) A                -0.3284
    ------------------------------------------------------
  ----------------------------------------------------------------------------


  Excited state 15 (A)                                             [converged]
  ----------------------------------------------------------------------------
  Term symbol:  16 (-) A                                    R^2 =  4.01954e-13

  Total energy:                                           -424.2512762888 a.u.
  Excitation energy:                                             315.044040 eV

  Osc. strength:                                                      0.028335
  Trans. dip. moment [a.u.]:           [   0.049392,   -0.026896,   -0.022540]
  <i|r^2|0> [a.u.]:                    [  -0.130212,   -0.239249,    0.000070]

  V1^2 = 0.8937, V2^2 = 0.1063

  Important amplitudes:
     core i     occ j      vir a      vir b          v   
    ------------------------------------------------------
     5 (A) B              28 (A) B                -0.7042
     5 (A) A              28 (A) A                -0.5165
    ------------------------------------------------------
  ----------------------------------------------------------------------------


  Excited state 16 (A)                                             [converged]
  ----------------------------------------------------------------------------
  Term symbol:  17 (-) A                                    R^2 =  4.78706e-13

  Total energy:                                           -424.2274805156 a.u.
  Excitation energy:                                             315.691556 eV

  Osc. strength:                                                      0.000143
  Trans. dip. moment [a.u.]:           [  -0.001660,   -0.003847,    0.000937]
  <i|r^2|0> [a.u.]:                    [   0.002704,   -0.035892,   -0.001701]

  V1^2 = 0.8884, V2^2 = 0.1116

  Important amplitudes:
     core i     occ j      vir a      vir b          v   
    ------------------------------------------------------
     5 (A) A              29 (A) A                 0.6598
     5 (A) B              29 (A) B                -0.5152
    ------------------------------------------------------
  ----------------------------------------------------------------------------


  Excited state 17 (A)                                             [converged]
  ----------------------------------------------------------------------------
  Term symbol:  18 (-) A                                    R^2 =  2.03167e-12

  Total energy:                                           -424.2089392356 a.u.
  Excitation energy:                                             316.196090 eV

  Osc. strength:                                                      0.013519
  Trans. dip. moment [a.u.]:           [   0.014694,    0.037176,   -0.012134]
  <i|r^2|0> [a.u.]:                    [  -0.026129,    0.343300,    0.012723]

  V1^2 = 0.8915, V2^2 = 0.1085

  Important amplitudes:
     core i     occ j      vir a      vir b          v   
    ------------------------------------------------------
     5 (A) B              29 (A) B                -0.6905
     5 (A) A              29 (A) A                -0.5553
    ------------------------------------------------------
  ----------------------------------------------------------------------------


  Excited state 18 (A)                                             [converged]
  ----------------------------------------------------------------------------
  Term symbol:  19 (-) A                                    R^2 =  5.59480e-08

  Total energy:                                           -423.7333316614 a.u.
  Excitation energy:                                             329.138030 eV

  Osc. strength:                                                      0.000104
  Trans. dip. moment [a.u.]:           [   0.001859,    0.000972,    0.002916]
  <i|r^2|0> [a.u.]:                    [  -0.004427,    0.009465,   -0.001546]

  V1^2 = 0.8833, V2^2 = 0.1167

  Important amplitudes:
     core i     occ j      vir a      vir b          v   
    ------------------------------------------------------
     5 (A) A              31 (A) A                -0.8987
     5 (A) A              30 (A) A                 0.1704
    ------------------------------------------------------
  ----------------------------------------------------------------------------


  Excited state 19 (A)                                             [converged]
  ----------------------------------------------------------------------------
  Term symbol:  20 (-) A                                    R^2 =  3.97441e-09

  Total energy:                                           -423.7119065979 a.u.
  Excitation energy:                                             329.721036 eV

  Osc. strength:                                                      0.000060
  Trans. dip. moment [a.u.]:           [   0.002225,   -0.001220,   -0.001014]
  <i|r^2|0> [a.u.]:                    [  -0.005345,   -0.015955,    0.004589]

  V1^2 = 0.8848, V2^2 = 0.1152

  Important amplitudes:
     core i     occ j      vir a      vir b          v   
    ------------------------------------------------------
     5 (A) A              32 (A) A                -0.9165
     5 (A) A              37 (A) A                -0.1558
    ------------------------------------------------------
  ----------------------------------------------------------------------------


  Excited state 20 (A)                                             [converged]
  ----------------------------------------------------------------------------
  Term symbol:  21 (-) A                                    R^2 =  7.26240e-07

  Total energy:                                           -423.7015644732 a.u.
  Excitation energy:                                             330.002459 eV

  Osc. strength:                                                      0.000072
  Trans. dip. moment [a.u.]:           [   0.002425,   -0.001324,   -0.001104]
  <i|r^2|0> [a.u.]:                    [  -0.005819,   -0.017530,    0.005185]

  V1^2 = 0.8853, V2^2 = 0.1147

  Important amplitudes:
     core i     occ j      vir a      vir b          v   
    ------------------------------------------------------
     5 (A) B              31 (A) B                -0.9178
     5 (A) B              36 (A) B                -0.1547
    ------------------------------------------------------
  ----------------------------------------------------------------------------


--------------------------------------------------------------------------------
  Time of ADC calculation:  CPU 1458.18 s  wall 1511.06 s
================================================================================
 
 --------------------------------------------------------------
 
                    Orbital Energies (a.u.)
 --------------------------------------------------------------
 
 Alpha MOs
 -- Occupied --
-27.004 -26.681 -26.659 -26.659 -11.930  -2.315  -2.059  -1.971
 -1.958  -1.440  -1.414  -1.315  -1.229  -1.141  -1.129  -1.036
 -1.010  -1.008  -0.969  -0.964  -0.947
 -- Virtual --
  0.045   0.113   0.124   0.178   0.321   0.378   0.386   0.431
  0.908   0.920   0.948   1.044   1.051   1.134   1.162   1.197
  1.304   1.313   1.357   1.358   1.389   1.390   1.447   1.447
  1.509   1.713   1.714   1.823   1.836   1.843   1.875   1.926
  1.930   1.937   1.953   1.972   2.073   2.080   2.124   2.285
  2.580   2.615   2.623   2.841   2.847   3.004   3.121   3.130
  3.135   4.314   4.403   4.473   4.479   6.005
 
 Beta MOs
 -- Occupied --
-26.952 -26.677 -26.658 -26.658 -11.932  -2.166  -2.026  -1.961
 -1.956  -1.394  -1.269  -1.221  -1.152  -1.120  -1.013  -1.003
 -0.999  -0.968  -0.961  -0.945
 -- Virtual --
 -0.465   0.068   0.124   0.150   0.179   0.328   0.385   0.386
  0.432   0.927   0.960   1.002   1.053   1.053   1.139   1.205
  1.244   1.316   1.327   1.359   1.367   1.390   1.392   1.488
  1.491   1.516   1.742   1.747   1.825   1.840   1.845   1.889
  1.938   1.938   1.963   1.974   1.980   2.082   2.082   2.124
  2.291   2.597   2.626   2.627   2.847   2.847   3.020   3.124
  3.132   3.135   4.334   4.403   4.476   4.481   6.010
 --------------------------------------------------------------
 
          Ground-State Mulliken Net Atomic Charges

     Atom                 Charge (a.u.)    Spin (a.u.)
  --------------------------------------------------------
      1 C                     1.332829      -0.073826
      2 F                    -0.231055       0.012923
      3 F                    -0.231142       0.012642
      4 F                     0.340269       0.981625
      5 F                    -0.210902       0.066635
  --------------------------------------------------------
  Sum of atomic charges =     1.000000
  Sum of spin   charges =     1.000000

 -----------------------------------------------------------------
                    Cartesian Multipole Moments
 -----------------------------------------------------------------
    Charge (ESU x 10^10)
                 4.8032
    Dipole Moment (Debye)
         X      -4.6189      Y       8.1073      Z       1.0301
       Tot       9.3874
    Quadrupole Moments (Debye-Ang)
        XX     -17.6572     XY      -7.0771     YY      -6.7811
        XZ      -0.9729     YZ       0.8830     ZZ     -21.2161
    Octopole Moments (Debye-Ang^2)
       XXX      41.1865    XXY     -46.4206    XYY       3.2288
       YYY    -125.2714    XXZ       0.9977    XYZ      -0.9254
       YYZ      -0.0777    XZZ      14.4372    YZZ     -51.3110
       ZZZ       1.0171
    Hexadecapole Moments (Debye-Ang^3)
      XXXX    -128.8351   XXXY     104.2649   XXYY    -149.6929
      XYYY      86.5824   YYYY    -741.6028   XXXZ      -1.3298
      XXYZ       0.8528   XYYZ      -0.6051   YYYZ      -3.7174
      XXZZ     -33.9760   XYZZ      35.0910   YYZZ    -145.8069
      XZZZ      -0.5841   YZZZ       0.1429   ZZZZ     -69.8534
 -----------------------------------------------------------------
Archival summary:
1\1\tp-linux1\SP\HF\6-31G*\41(1+,2)\thomas\WedMar2211:31:512017WedMar2211:31:512017\0\\#,HF,6-31G*,\\1,2\C\F,1,1.29898\F,1,1.2994,2,109.722\F,1,1.2994,2,109.721,3,120.592,0\F,1,1.30886,2,109.253,3,-119.706,0\\HF=-435.071132\\@

 Total job time:  1524.21s(wall), 1468.10s(cpu) 
 Wed Mar 22 11:31:51 2017

        *************************************************************
        *                                                           *
        *  Thank you very much for using Q-Chem.  Have a nice day.  *
        *                                                           *
        *************************************************************


0 sent ACK to 0 
now end server 0 ... 
cleanup process ... done
