
Running Job 1 of 1 ddtraj1t15.inp
qchem ddtraj1t15.inp_10424.0 /scratch/qchem/qchem10424/ 1
/mnt/software/qchem/bin/mpi/mpirun_qchem -machinefile /mnt/software/qchem/bin/mpi/machines -np 1 /mnt/software/qchem/exe/qcprog.exe ddtraj1t15.inp_10424.0 /scratch/qchem/qchem10424/

Process 0 of 1 is on tp-linux1 - thread support 0
initial socket setup ...start
initial socket setup ...done 
now start server 0 ... 

cmd = ssh tp-linux1 /mnt/software/qchem/bin/get_hostid 1005948934 > /scratch/qchem/qchem10424/lic.dat
                  Welcome to Q-Chem
     A Quantum Leap Into The Future Of Chemistry


 Q-Chem 4.3, Q-Chem, Inc., Pleasanton, CA (2015)

 Y. Shao,  Z. Gan,  E. Epifanovsky,  A. T. B. Gilbert,  M. Wormit,  
 J. Kussmann,  A. W. Lange,  A. Behn,  J. Deng,  X. Feng,  D. Ghosh,  
 M. Goldey,  P. R. Horn,  L. D. Jacobson,  I. Kaliman,  R. Z. Khaliullin,  
 T. Kus,  A. Landau,  J. Liu,  E. I. Proynov,  Y. M. Rhee,  R. M. Richard,  
 M. A. Rohrdanz,  R. P. Steele,  E. J. Sundstrom,  H. L. Woodcock III,  
 P. M. Zimmerman,  D. Zuev,  B. Albrecht,  E. Alguire,  B. Austin,  
 S. A. Baeppler,  G. J. O. Beran,  Y. A. Bernard,  E. Berquist,  
 K. Brandhorst,  K. B. Bravaya,  S. T. Brown,  D. Casanova,  C.-M. Chang,  
 Y. Chen,  S. H. Chien,  K. D. Closser,  D. L. Crittenden,  M. Diedenhofen,  
 R. A. DiStasio Jr.,  H. Do,  A. D. Dutoi,  R. G. Edgar,  P.-T. Fang,  
 S. Fatehi,  Q. Feng,  L. Fusti-Molnar,  A. Ghysels,  
 A. Golubeva-Zadorozhnaya,  J. Gomes,  A. Gunina,  M. W. D. Hanson-Heine,  
 P. H. P. Harbach,  A. W. Hauser,  E. G. Hohenstein,  Z. C. Holden,  K. Hui,  
 T.-C. Jagau,  H. Ji,  B. Kaduk,  K. Khistyaev,  Jaehoon Kim,  Jihan Kim,  
 R. A. King,  P. Klunzinger,  D. Kosenkov,  T. Kowalczyk,  C. M. Krauter,  
 K. U. Lao,  A. Laurent,  K. V. Lawler,  S. Lehtola,  S. V. Levchenko,  
 C. Y. Lin,  Y.-S. Lin,  F. Liu,  E. Livshits,  R. C. Lochan,  A. Luenser,  
 P. Manohar,  S. F. Manzer,  S.-P. Mao,  N. Mardirossian,  A. V. Marenich,  
 L. A. Martinez-Martinez,  S. A. Maurer,  N. J. Mayhall,  K. Nanda,  
 C. M. Oana,  R. Olivares-Amaya,  D. P. O'Neill,  J. A. Parkhill,  
 T. M. Perrine,  R. Peverati,  P. A. Pieniazek,  F. Plasser,  A. Prociuk,  
 D. R. Rehn,  E. Rosta,  N. J. Russ,  N. Sergueev,  S. M. Sharada,  
 S. Sharma,  D. W. Small,  A. Sodt,  T. Stauch,  T. Stein,  D. Stuck,  
 Y.-C. Su,  A. J. W. Thom,  T. Tsuchimochi,  L. Vogt,  O. Vydrov,  T. Wang,  
 M. A. Watson,  J. Wenzel,  A. White,  C. F. Williams,  V. Vanovschi,  
 S. Yeganeh,  S. R. Yost,  Z.-Q. You,  I. Y. Zhang,  X. Zhang,  Y. Zhao,  
 B. R. Brooks,  G. K. L. Chan,  D. M. Chipman,  C. J. Cramer,  
 W. A. Goddard III,  M. S. Gordon,  W. J. Hehre,  A. Klamt,  
 H. F. Schaefer III,  M. W. Schmidt,  C. D. Sherrill,  D. G. Truhlar,  
 A. Warshel,  X. Xu,  A. Aspuru-Guzik,  R. Baer,  A. T. Bell,  N. A. Besley,  
 J.-D. Chai,  A. Dreuw,  B. D. Dunietz,  T. R. Furlani,  S. R. Gwaltney,  
 C.-P. Hsu,  Y. Jung,  J. Kong,  D. S. Lambrecht,  W. Liang,  C. Ochsenfeld,  
 V. A. Rassolov,  L. V. Slipchenko,  J. E. Subotnik,  T. Van Voorhis,  
 J. M. Herbert,  A. I. Krylov,  P. M. W. Gill,  M. Head-Gordon

 Contributors to earlier versions of Q-Chem not listed above: 
 R. D. Adamson,  J. Baker,  E. F. C. Byrd,  A. K. Chakraborty,  C.-L. Cheng,  
 H. Dachsel,  R. J. Doerksen,  G. Hawkins,  A. Heyden,  S. Hirata,  
 G. Kedziora,  F. J. Keil,  C. Kelley,  P. P. Korambath,  W. Kurlancheek,  
 A. M. Lee,  M. S. Lee,  D. Liotard,  I. Lotan,  P. E. Maslen,  N. Nair,  
 D. Neuhauser,  R. Olson,  B. Peters,  J. Ritchie,  N. E. Schultz,  
 N. Shenvi,  A. C. Simmonett,  K. S. Thanthiriwatte,  Q. Wu,  W. Zhang

 Please cite Q-Chem as follows:
 Y. Shao et al., Mol. Phys. 113, 184-215 (2015)
 DOI: 10.1080/00268976.2014.952696

 Q-Chem 4.3.0 for Intel X86 Linux

 Parts of Q-Chem use Armadillo 5.200.1 (Boston Tea Smuggler).
 http://arma.sourceforge.net/

 Q-Chem begins on Wed Mar 22 16:39:38 2017  

Host: 
0

     Scratch files written to /scratch/qchem/qchem10424//
 Nov1815 1189b_ 19540  19532 5443   
 Parallel job on  1  processors
Processing $rem in /mnt/software/qchem/config/preferences.
 MEM_TOTAL  2000 

Checking the input file for inconsistencies... 	...done.

--------------------------------------------------------------
User input:
--------------------------------------------------------------
$comment
XAS calculation for valence excited states for CF4+ using cvs-adc(2) + 6-31G* basis set
job 1 - determination of HF orbitals
$end

$molecule
1 2
6  -0.496843  2.888097  -0.198647
9  0.578496  2.31319  0.008759
9  -1.146447  3.251493  0.789385
9  -1.216987  0.954013  0.52949
9  -1.140317  2.539907  -1.202162
$end

$comment
cvs-adc(2) calculation
$end

$rem
mem_total 3000
mem_static 1500
sym_ignore true
method cvs-adc(2)
basis 6-31G*
ee_singlets 20
cc_rest_occ 5                  !only excitations from the lowest N orbitals
unrestricted  true
max_scf_cycles 200
SCF_ALGORITHM = DIIS_GDM
SCF_CONVERGENCE = 7
THRESH = 10
$end
--------------------------------------------------------------
 ----------------------------------------------------------------
             Standard Nuclear Orientation (Angstroms)
    I     Atom           X                Y                Z
 ----------------------------------------------------------------
    1      C      -0.4968430000     2.8880970000    -0.1986470000
    2      F       0.5784960000     2.3131900000     0.0087590000
    3      F      -1.1464470000     3.2514930000     0.7893850000
    4      F      -1.2169870000     0.9540130000     0.5294900000
    5      F      -1.1403170000     2.5399070000    -1.2021620000
 ----------------------------------------------------------------
 Nuclear Repulsion Energy =   198.4099854412 hartrees
 There are       21 alpha and       20 beta electrons
 Requested basis set is 6-31G(d)
 There are 20 shells and 75 basis functions

 Total QAlloc Memory Limit   3000 MB
 Mega-Array Size      1467 MB
 MEM_STATIC part      1500 MB

                       Distance Matrix (Angstroms)
             C (  1)   F (  2)   F (  3)   F (  4)
   F (  2)  1.236887
   F (  3)  1.237032  2.113106
   F (  4)  2.188486  2.311338  2.313209
   F (  5)  1.241909  2.114722  2.114864  2.349374
 
 tim1(1): 
  0.000000000000000E+000
 tim1(2): 
  0.000000000000000E+000
 A cutoff of  1.0D-10 yielded    203 shell pairs
 There are      2978 function pairs
 
 -------------------------------------------------------
 OpenMP Integral Computing Module                       
 Release: version 1.0, May 2013, Q-Chem Inc. Pittsburgh 
 -------------------------------------------------------
 Integral Job Info:
 Integral job number is                      11
 Integral operator is                         1
 short-range coefficients                     0
 long-range coefficients              100000000
 Omega coefficients                           0
 if combine SR and LR in K                    0
 Integral screening is                        0
 Integral computing path is                   2
 max size of driver memory is            800000
 size of driver memory is                593474
 size of scratch memory is              2260544
 max col of scratch BK array               1296
 max len of scratch array in speh3          155
 max len of scratch index in speh4           18
 max int batch size is                      520
 min int batch size is                       52
 fixed nKL is                                52
 max L of basis functions is                  2
 order of int derivative is                   0
 number of shells is                         20
 number of basis is                          75
 number of cartesian basis is                75
 number of contracted shell pairs           203
 number of primitive shell pairs           1027
 maxK2 (contraction) of shell pair           36
 max number of K2 of shell pair               1
 max number of CS2 of shell pair             32
 max number of PS2 of shell pair            192
 mem total for path MDJ                   21832
 -------------------------------------------------------
 Smallest overlap matrix eigenvalue = 1.33E-03

 Scale SEOQF with 1.000000e+00/1.000000e-01/1.000000e+00

 Standard Electronic Orientation quadrupole field applied
 Nucleus-field energy     =     0.0000000104 hartrees
 Guess from superposition of atomic densities
 Warning:  Energy on first SCF cycle will be non-variational
 An unrestricted Hartree-Fock SCF calculation will be
 performed using Pulay DIIS + Geometric Direct Minimization
 SCF converges when RMS gradient is below 1.0E-07
 ---------------------------------------
  Cycle       Energy         DIIS Error
 ---------------------------------------
    1    -436.3075656638      8.85E-02
    2    -434.9005070280      1.83E-02
    3    -435.1005722524      8.60E-03 Done DIIS. Switching to GDM
    4    -435.1373384816      2.73E-02 Normal BFGS step
    5    -435.1393193524      1.18E-02 Normal BFGS step
    6    -435.1398966895      3.42E-03 Normal BFGS step
    7    -435.1399393520      3.37E-03 Normal BFGS step
    8    -435.1399679877      3.30E-03 Normal BFGS step
    9    -435.1400062018      3.13E-03 Normal BFGS step
   10    -435.1400716929      2.79E-03 Normal BFGS step
   11    -435.1401834202      3.28E-03 Normal BFGS step
   12    -435.1403214657      3.20E-03 Normal BFGS step
   13    -435.1404267298      2.09E-03 Normal BFGS step
   14    -435.1404712859      1.24E-03 Normal BFGS step
   15    -435.1404810416      4.23E-04 Normal BFGS step
   16    -435.1404835581      1.86E-04 Normal BFGS step
   17    -435.1404840892      1.15E-04 Normal BFGS step
   18    -435.1404841862      1.16E-04 Normal BFGS step
   19    -435.1404842207      1.16E-04 Normal BFGS step
   20    -435.1404842602      1.17E-04 Normal BFGS step
   21    -435.1404843375      1.17E-04 Normal BFGS step
   22    -435.1404845178      1.18E-04 Normal BFGS step
   23    -435.1404849581      1.59E-04 Normal BFGS step
   24    -435.1404860786      2.65E-04 Normal BFGS step
   25    -435.1404890130      4.53E-04 Normal BFGS step
   26    -435.1404948571      9.82E-04 Normal BFGS step
   27    -435.1405029446      1.26E-03 Dog-leg BFGS step
   28    -435.1405070489      3.98E-03 Normal BFGS step
   29    -435.1405235354      2.27E-03 Normal BFGS step
   30    -435.1405483258      4.36E-04 Normal BFGS step
   31    -435.1405580947      1.38E-03 Normal BFGS step
   32    -435.1405649323      1.59E-03 Normal BFGS step
   33    -435.1405817433      1.62E-03 Normal BFGS step
   34    -435.1405980337      8.77E-04 Normal BFGS step
   35    -435.1406006101      3.01E-03 Normal BFGS step
   36    -435.1406174250      5.98E-04 Normal BFGS step
   37    -435.1406244587      7.37E-04 Normal BFGS step
   38    -435.1406267152      1.56E-03 Normal BFGS step
   39    -435.1406323057      4.51E-04 Normal BFGS step
   40    -435.1406344054      2.94E-04 Normal BFGS step
   41    -435.1406366976      9.61E-04 Normal BFGS step
   42    -435.1406382459      2.48E-04 Normal BFGS step
   43    -435.1406391405      1.33E-04 Normal BFGS step
   44    -435.1406400927      2.68E-04 Normal BFGS step
   45    -435.1406403086      6.57E-05 Normal BFGS step
   46    -435.1406403499      1.73E-05 Normal BFGS step
   47    -435.1406403553      1.13E-05 Normal BFGS step
   48    -435.1406403566      3.12E-06 Normal BFGS step
   49    -435.1406403567      1.84E-06 Normal BFGS step
   50    -435.1406403568      7.81E-07 Normal BFGS step
   51    -435.1406403568      3.14E-07 Normal BFGS step
   52    -435.1406403568      1.98E-07 Normal BFGS step
   53    -435.1406403568      7.50E-08 Convergence criterion met
 ---------------------------------------
 <S^2> = 0.7529
 SCF time:  CPU 8.32 s  wall 11.46 s
 SCF   energy in the final basis set = -435.1406403568
 Total energy in the final basis set = -435.1406403568
================================================================================
|                                                                              |
|                                 A D C  M A N                                 |
|                                                                              |
 ------------------------------------------------------------------------------ 
|                                                                              |
| Components:                                                                  |
|                                                                              |
| - libvmm - 1.2-release                                                       |
|   Authors:                                                                   |
|   Evgeny Epifanovsky, Ilya Kaliman                                           |
|                                                                              |
| - libtensor - 2.4-trunk                                                      |
|   Authors:                                                                   |
|   Evgeny Epifanovsky, Michael Wormit, Dmitry Zuev, Sam Manzer                |
|                                                                              |
| - libwfa - 1.1-beta                                                          |
|   Authors:                                                                   |
|   Felix Plasser, Stefanie Baeppler, Benjamin Thomitzni, Michael Wormit       |
|                                                                              |
| - libadc - 1.0-beta                                                          |
|   Authors:                                                                   |
|   Michael Wormit, Philipp H. P. Harbach, Caroline Krauter, Dirk Rehn,        |
|   Matthias Schneider, Jan Wenzel                                             |
|                                                                              |
| - adcman - 2.4-beta                                                          |
|   Authors:                                                                   |
|   Michael Wormit, Philipp H. P. Harbach, Caroline Krauter, Dirk Rehn,        |
|   Jan Wenzel, Andreas Dreuw                                                  |
|                                                                              |
| Authors of earlier versions of ADCMAN:                                       |
| Andreas Dreuw, Jan Hendrik Starcke, Dirk Rehn, Michael Wormit                |
|                                                                              |
================================================================================

 
 Alpha MOs, Unrestricted
 -- Occupied --                  
-26.739 -26.739 -26.736 -26.645 -11.957  -2.154  -2.049  -2.044
  1 A     2 A     3 A     4 A     5 A     6 A     7 A     8 A                  
 -1.904  -1.318  -1.226  -1.225  -1.181  -1.082  -1.063  -1.058
  9 A    10 A    11 A    12 A    13 A    14 A    15 A    16 A                  
 -1.038  -1.026  -1.013  -0.955  -0.952
 17 A    18 A    19 A    20 A    21 A                                          
 -- Virtual --                   
 -0.254   0.109   0.170   0.170   0.362   0.399   0.400   0.502
 22 A    23 A    24 A    25 A    26 A    27 A    28 A    29 A                  
  0.936   0.973   0.999   1.018   1.020   1.036   1.196   1.218
 30 A    31 A    32 A    33 A    34 A    35 A    36 A    37 A                  
  1.226   1.292   1.292   1.312   1.359   1.380   1.412   1.630
 38 A    39 A    40 A    41 A    42 A    43 A    44 A    45 A                  
  1.642   1.656   1.728   1.733   1.783   1.797   1.803   1.878
 46 A    47 A    48 A    49 A    50 A    51 A    52 A    53 A                  
  1.882   1.924   1.940   1.947   2.016   2.019   2.053   2.055
 54 A    55 A    56 A    57 A    58 A    59 A    60 A    61 A                  
  2.400   2.610   2.616   2.737   2.919   2.923   3.163   3.165
 62 A    63 A    64 A    65 A    66 A    67 A    68 A    69 A                  
  3.301   3.769   4.311   4.631   4.647   7.025
 70 A    71 A    72 A    73 A    74 A    75 A                                  
 
 Beta MOs, Unrestricted
 -- Occupied --                  
-26.739 -26.739 -26.736 -26.596 -11.957  -2.153  -2.048  -2.044
  1 A     2 A     3 A     4 A     5 A     6 A     7 A     8 A                  
 -1.713  -1.318  -1.226  -1.225  -1.178  -1.062  -1.062  -1.037
  9 A    10 A    11 A    12 A    13 A    14 A    15 A    16 A                  
 -1.037  -1.013  -0.903  -0.902
 17 A    18 A    19 A    20 A                                                  
 -- Virtual --                   
 -0.254  -0.149   0.111   0.170   0.174   0.362   0.399   0.403
 21 A    22 A    23 A    24 A    25 A    26 A    27 A    28 A                  
  0.509   0.947   1.005   1.011   1.022   1.049   1.055   1.224
 29 A    30 A    31 A    32 A    33 A    34 A    35 A    36 A                  
  1.232   1.243   1.292   1.292   1.312   1.391   1.414   1.458
 37 A    38 A    39 A    40 A    41 A    42 A    43 A    44 A                  
  1.645   1.654   1.681   1.735   1.736   1.783   1.831   1.835
 45 A    46 A    47 A    48 A    49 A    50 A    51 A    52 A                  
  1.924   1.929   1.932   1.948   1.951   2.033   2.055   2.065
 53 A    54 A    55 A    56 A    57 A    58 A    59 A    60 A                  
  2.069   2.402   2.610   2.617   2.745   2.919   2.923   3.163
 61 A    62 A    63 A    64 A    65 A    66 A    67 A    68 A                  
  3.165   3.303   3.805   4.311   4.631   4.648   7.027
 69 A    70 A    71 A    72 A    73 A    74 A    75 A                          
 

--------------------------------------------------------------------------------
                                   HF Summary                                   
--------------------------------------------------------------------------------
  Energy:                                                 -435.1406403568 a.u.
  Dip. moment [a.u.]:                  [ -54.428644,  181.410318,    0.226674]
  Total dipole [Debye]:                                             481.406015
  <r^2> [a.u.]:                        [ 161.999037,  912.504596,   91.805674]
  Total <r^2> [a.u.]:                                              1166.309306
--------------------------------------------------------------------------------

--------------------------------------------------------------------------------
                                 MP(2) Summary                                  
--------------------------------------------------------------------------------
  Energy contribution:                                      -0.7502378604 a.u.
  Total energy:                                           -435.8908782171 a.u.
  Dip. moment [a.u.]:                  [ -54.372674,  181.554518,    0.176828]
  Total dipole [Debye]:                                             481.716118
  <r^2> [a.u.]:                        [ 161.618113,  914.167295,   91.559840]
  Total <r^2> [a.u.]:                                              1167.345248
--------------------------------------------------------------------------------
  Starting Davidson ... 
--------------------------------------------------------------------------------
   It NVec Conv  Avg. Norm  Max. Norm  Conv. states           Remark
--------------------------------------------------------------------------------
        20    0  2.072e-01  1.146e+00 10.9443 n n n n n n n n Guess.
    1   40    0  4.288e-02  5.873e-01 10.7845 n n n n n n n n 
    2   60    0  1.040e-02  1.092e-01 10.7833 n n n n n n n n 
    3   80    0  3.547e-03  4.079e-02 10.7832 n n n n n n n n 
    4  100    0  2.233e-03  2.870e-02 10.7832 n n n n n n n n 
    5   40    0  8.955e-04  1.102e-02 10.7832 n n n n n n n n Subspace collapsed.
    6   60    0  7.123e-04  9.602e-03 10.7832 n n n n n n n n 
    7   80    1  5.571e-04  6.787e-03 10.7832 y n n n n n n n 
    8  100    2  4.270e-04  5.838e-03 10.7832 y y n n n n n n 
    9   40    6  2.594e-04  4.005e-03 10.7832 y y n n y y n y Subspace collapsed.
   10   60    8  2.381e-04  4.369e-03 10.7832 y y n y y y y y 
   11   80    8  2.230e-04  4.153e-03 10.7832 y y n y y y y y 
   12  100   12  2.680e-04  5.006e-03 10.7832 y y y y y y y y 
   13   40   14  1.454e-04  2.644e-03 10.7832 y y y y y y y y Subspace collapsed.
   14   60   14  1.190e-04  2.060e-03 10.7832 y y y y y y y y 
   15   80   15  9.751e-05  1.456e-03 10.7832 y y y y y y y y 
   16   99   15  1.189e-04  1.938e-03 10.7832 y y y y y y y y 
   17  100   15  1.187e-04  1.931e-03 10.7832 y y y y y y y y 
   18   38   15  7.207e-05  1.166e-03 10.7832 y y y y y y y y Subspace collapsed.
   19   56   16  7.236e-05  1.298e-03 10.7832 y y y y y y y y 
   20   59   16  7.167e-05  1.282e-03 10.7832 y y y y y y y y 
   21   61   16  7.179e-05  1.284e-03 10.7832 y y y y y y y y 
   22   75   16  7.286e-05  1.368e-03 10.7832 y y y y y y y y 
   23   86   17  7.560e-05  1.399e-03 10.7832 y y y y y y y y 
   24   97   17  7.256e-05  1.248e-03 10.7832 y y y y y y y y 
   25  100   17  7.261e-05  1.249e-03 10.7832 y y y y y y y y 
   26   31   17  2.975e-05  5.011e-04 10.7832 y y y y y y y y Subspace collapsed.
   27   42   17  2.084e-05  3.444e-04 10.7832 y y y y y y y y 
   28   53   17  1.567e-05  2.586e-04 10.7832 y y y y y y y y 
   29   64   17  1.415e-05  2.062e-04 10.7832 y y y y y y y y 
   30   66   17  1.436e-05  2.172e-04 10.7832 y y y y y y y y 
   31   68   17  1.483e-05  2.288e-04 10.7832 y y y y y y y y 
   32   68   17  1.483e-05  2.288e-04 10.7832 y y y y y y y y 
   33   69   17  1.482e-05  2.281e-04 10.7832 y y y y y y y y 
   34   69   17  1.482e-05  2.281e-04 10.7832 y y y y y y y y 
   35   69   17  1.482e-05  2.281e-04 10.7832 y y y y y y y y 
   36   89   17  1.468e-05  2.403e-04 10.7832 y y y y y y y y 
   37   89   17  1.468e-05  2.403e-04 10.7832 y y y y y y y y 
   38   91   17  1.469e-05  2.403e-04 10.7832 y y y y y y y y 
   39   91   17  1.469e-05  2.403e-04 10.7832 y y y y y y y y 
   40   91   17  1.469e-05  2.403e-04 10.7832 y y y y y y y y 
   41  100   17  1.491e-05  2.432e-04 10.7832 y y y y y y y y 
   42   27   17  9.081e-06  1.364e-04 10.7832 y y y y y y y y Subspace collapsed.
   43   27   17  9.081e-06  1.364e-04 10.7832 y y y y y y y y 
   44   28   17  9.074e-06  1.364e-04 10.7832 y y y y y y y y 
   45   28   17  9.074e-06  1.364e-04 10.7832 y y y y y y y y 
   46   28   17  9.074e-06  1.364e-04 10.7832 y y y y y y y y 
   47   48   17  8.625e-06  1.391e-04 10.7832 y y y y y y y y 
   48   53   17  8.187e-06  1.338e-04 10.7832 y y y y y y y y 
   49   58   17  8.507e-06  1.385e-04 10.7832 y y y y y y y y 
   50   63   17  9.500e-06  1.528e-04 10.7832 y y y y y y y y 
   51   68   17  6.592e-06  1.057e-04 10.7832 y y y y y y y y 
   52   73   17  3.548e-06  5.250e-05 10.7832 y y y y y y y y 
   53   78   17  2.054e-06  3.230e-05 10.7832 y y y y y y y y 
   54   83   17  1.358e-06  2.302e-05 10.7832 y y y y y y y y 
   55   88   17  1.362e-06  2.584e-05 10.7832 y y y y y y y y 
   56   93   17  1.409e-06  2.752e-05 10.7832 y y y y y y y y 
   57   98   17  1.147e-06  2.235e-05 10.7832 y y y y y y y y 
   58  100   17  1.140e-06  2.224e-05 10.7832 y y y y y y y y 
   59   25   17  5.902e-07  1.150e-05 10.7832 y y y y y y y y Subspace collapsed.
--------------------------------------------------------------------------------
  Davidson Summary: 
 ------------------------------------------------------------
  State  0: excitation energy =  10.7832 a.u.   (converged)
  State  1: excitation energy =  10.8532 a.u.   (converged)
  State  2: excitation energy =  11.1328 a.u.   (converged)
  State  3: excitation energy =  11.1689 a.u.   (converged)
  State  4: excitation energy =  11.1976 a.u.   (converged)
  State  5: excitation energy =  11.2012 a.u.   (converged)
  State  6: excitation energy =  11.2426 a.u.   (converged)
  State  7: excitation energy =  11.2746 a.u.   (converged)
  State  8: excitation energy =  11.2783 a.u.   (converged)
  State  9: excitation energy =  11.5158 a.u.   (converged)
  State 10: excitation energy =  11.5678 a.u.   (converged)
  State 11: excitation energy =  11.5751 a.u.   (converged)
  State 12: excitation energy =  11.5755 a.u.   (converged)
  State 13: excitation energy =  11.5919 a.u.   (converged)
  State 14: excitation energy =  11.5922 a.u.   (converged)
  State 15: excitation energy =  11.7046 a.u.   (converged)
  State 16: excitation energy =  11.7291 a.u.   (converged)
  State 17: excitation energy =  12.1934 a.u.   (not converged)
  State 18: excitation energy =  12.1990 a.u.   (not converged)
  State 19: excitation energy =  12.2060 a.u.   (not converged)
 ------------------------------------------------------------


--------------------------------------------------------------------------------
                             Excited State Summary
--------------------------------------------------------------------------------

  Excited state  1 (A)                                             [converged]
  ----------------------------------------------------------------------------
  Term symbol:  2 (-) A                                     R^2 =  3.85567e-14

  Total energy:                                           -425.1076517108 a.u.
  Excitation energy:                                             293.426516 eV

  Osc. strength:                                                      0.000000
  Trans. dip. moment [a.u.]:           [   0.000038,    0.000086,   -0.000022]
  <i|r^2|0> [a.u.]:                    [  -0.000060,    0.000946,    0.000026]

  V1^2 = 0.9566, V2^2 = 0.0434

  Important amplitudes:
     core i     occ j      vir a      vir b          v   
    ------------------------------------------------------
     5 (A) A              22 (A) A                 0.6509
     5 (A) B              21 (A) B                -0.6498
    ------------------------------------------------------
  ----------------------------------------------------------------------------


  Excited state  2 (A)                                             [converged]
  ----------------------------------------------------------------------------
  Term symbol:  3 (-) A                                     R^2 =  5.60462e-14

  Total energy:                                           -425.0376646072 a.u.
  Excitation energy:                                             295.330962 eV

  Osc. strength:                                                      0.096981
  Trans. dip. moment [a.u.]:           [  -0.039315,   -0.102606,    0.036469]
  <i|r^2|0> [a.u.]:                    [   0.066996,   -1.130197,   -0.034151]

  V1^2 = 0.9514, V2^2 = 0.0486

  Important amplitudes:
     core i     occ j      vir a      vir b          v   
    ------------------------------------------------------
     5 (A) B              21 (A) B                -0.6632
     5 (A) A              22 (A) A                -0.6621
    ------------------------------------------------------
  ----------------------------------------------------------------------------


  Excited state  3 (A)                                             [converged]
  ----------------------------------------------------------------------------
  Term symbol:  4 (-) A                                     R^2 =  7.71833e-14

  Total energy:                                           -424.7580426434 a.u.
  Excitation energy:                                             302.939863 eV

  Osc. strength:                                                      0.000002
  Trans. dip. moment [a.u.]:           [   0.000365,   -0.000224,   -0.000148]
  <i|r^2|0> [a.u.]:                    [  -0.000629,   -0.002541,    0.000165]

  V1^2 = 0.8529, V2^2 = 0.1471

  Important amplitudes:
     core i     occ j      vir a      vir b          v   
    ------------------------------------------------------
     5 (A) B              22 (A) B                 0.9220
     5 (A) B   13 (A) A   22 (A) A   22 (A) B     -0.0726
    ------------------------------------------------------
  ----------------------------------------------------------------------------


  Excited state  4 (A)                                             [converged]
  ----------------------------------------------------------------------------
  Term symbol:  5 (-) A                                     R^2 =  5.96995e-14

  Total energy:                                           -424.7219790868 a.u.
  Excitation energy:                                             303.921202 eV

  Osc. strength:                                                      0.000000
  Trans. dip. moment [a.u.]:           [   0.000075,    0.000225,   -0.000096]
  <i|r^2|0> [a.u.]:                    [  -0.000233,    0.002280,   -0.000019]

  V1^2 = 0.9318, V2^2 = 0.0682

  Important amplitudes:
     core i     occ j      vir a      vir b          v   
    ------------------------------------------------------
     5 (A) A              23 (A) A                -0.6294
     5 (A) B              23 (A) B                 0.6212
    ------------------------------------------------------
  ----------------------------------------------------------------------------


  Excited state  5 (A)                                             [converged]
  ----------------------------------------------------------------------------
  Term symbol:  6 (-) A                                     R^2 =  9.37700e-14

  Total energy:                                           -424.6932884946 a.u.
  Excitation energy:                                             304.701913 eV

  Osc. strength:                                                      0.000000
  Trans. dip. moment [a.u.]:           [   0.000034,    0.000065,    0.000007]
  <i|r^2|0> [a.u.]:                    [  -0.000084,    0.000676,   -0.000024]

  V1^2 = 0.9515, V2^2 = 0.0485

  Important amplitudes:
     core i     occ j      vir a      vir b          v   
    ------------------------------------------------------
     5 (A) B              24 (A) B                 0.5208
     5 (A) A              24 (A) A                -0.5198
    ------------------------------------------------------
  ----------------------------------------------------------------------------


  Excited state  6 (A)                                             [converged]
  ----------------------------------------------------------------------------
  Term symbol:  7 (-) A                                     R^2 =  1.75560e-13

  Total energy:                                           -424.6896566926 a.u.
  Excitation energy:                                             304.800739 eV

  Osc. strength:                                                      0.000000
  Trans. dip. moment [a.u.]:           [   0.000109,   -0.000064,   -0.000044]
  <i|r^2|0> [a.u.]:                    [  -0.000206,   -0.000696,    0.000041]

  V1^2 = 0.9515, V2^2 = 0.0485

  Important amplitudes:
     core i     occ j      vir a      vir b          v   
    ------------------------------------------------------
     5 (A) B              25 (A) B                -0.5199
     5 (A) A              25 (A) A                 0.5155
    ------------------------------------------------------
  ----------------------------------------------------------------------------


  Excited state  7 (A)                                             [converged]
  ----------------------------------------------------------------------------
  Term symbol:  8 (-) A                                     R^2 =  5.81360e-14

  Total energy:                                           -424.6482607737 a.u.
  Excitation energy:                                             305.927179 eV

  Osc. strength:                                                      0.023859
  Trans. dip. moment [a.u.]:           [  -0.022207,   -0.050455,    0.012018]
  <i|r^2|0> [a.u.]:                    [   0.058967,   -0.524359,    0.007815]

  V1^2 = 0.9211, V2^2 = 0.0789

  Important amplitudes:
     core i     occ j      vir a      vir b          v   
    ------------------------------------------------------
     5 (A) B              23 (A) B                 0.6534
     5 (A) A              23 (A) A                 0.6446
    ------------------------------------------------------
  ----------------------------------------------------------------------------


  Excited state  8 (A)                                             [converged]
  ----------------------------------------------------------------------------
  Term symbol:  9 (-) A                                     R^2 =  1.01489e-13

  Total energy:                                           -424.6162726648 a.u.
  Excitation energy:                                             306.797620 eV

  Osc. strength:                                                      0.116327
  Trans. dip. moment [a.u.]:           [  -0.056316,   -0.014147,   -0.110022]
  <i|r^2|0> [a.u.]:                    [   0.107154,   -0.155161,    0.079049]

  V1^2 = 0.9425, V2^2 = 0.0575

  Important amplitudes:
     core i     occ j      vir a      vir b          v   
    ------------------------------------------------------
     5 (A) B              24 (A) B                -0.5621
     5 (A) A              24 (A) A                -0.5615
    ------------------------------------------------------
  ----------------------------------------------------------------------------


  Excited state  9 (A)                                             [converged]
  ----------------------------------------------------------------------------
  Term symbol:  10 (-) A                                    R^2 =  7.67293e-14

  Total energy:                                           -424.6125732783 a.u.
  Excitation energy:                                             306.898285 eV

  Osc. strength:                                                      0.116306
  Trans. dip. moment [a.u.]:           [  -0.101929,    0.055193,    0.045087]
  <i|r^2|0> [a.u.]:                    [   0.195177,    0.603948,   -0.039215]

  V1^2 = 0.9425, V2^2 = 0.0575

  Important amplitudes:
     core i     occ j      vir a      vir b          v   
    ------------------------------------------------------
     5 (A) B              25 (A) B                -0.5630
     5 (A) A              25 (A) A                -0.5571
    ------------------------------------------------------
  ----------------------------------------------------------------------------


  Excited state 10 (A)                                             [converged]
  ----------------------------------------------------------------------------
  Term symbol:  11 (-) A                                    R^2 =  5.48650e-13

  Total energy:                                           -424.3750798813 a.u.
  Excitation energy:                                             313.360809 eV

  Osc. strength:                                                      0.000000
  Trans. dip. moment [a.u.]:           [   0.000022,    0.000068,   -0.000024]
  <i|r^2|0> [a.u.]:                    [  -0.000045,    0.000736,    0.000013]

  V1^2 = 0.9183, V2^2 = 0.0817

  Important amplitudes:
     core i     occ j      vir a      vir b          v   
    ------------------------------------------------------
     5 (A) B              26 (A) B                -0.6369
     5 (A) A              26 (A) A                 0.6357
    ------------------------------------------------------
  ----------------------------------------------------------------------------


  Excited state 11 (A)                                             [converged]
  ----------------------------------------------------------------------------
  Term symbol:  12 (-) A                                    R^2 =  1.08335e-13

  Total energy:                                           -424.3230506882 a.u.
  Excitation energy:                                             314.776596 eV

  Osc. strength:                                                      0.021598
  Trans. dip. moment [a.u.]:           [  -0.018231,   -0.046955,    0.016234]
  <i|r^2|0> [a.u.]:                    [   0.013545,   -0.533717,   -0.032899]

  V1^2 = 0.9184, V2^2 = 0.0816

  Important amplitudes:
     core i     occ j      vir a      vir b          v   
    ------------------------------------------------------
     5 (A) A              26 (A) A                 0.6616
     5 (A) B              26 (A) B                 0.6611
    ------------------------------------------------------
  ----------------------------------------------------------------------------


  Excited state 12 (A)                                             [converged]
  ----------------------------------------------------------------------------
  Term symbol:  13 (-) A                                    R^2 =  2.13396e-13

  Total energy:                                           -424.3157582096 a.u.
  Excitation energy:                                             314.975034 eV

  Osc. strength:                                                      0.000488
  Trans. dip. moment [a.u.]:           [   0.006589,   -0.003525,   -0.002728]
  <i|r^2|0> [a.u.]:                    [  -0.012603,   -0.038438,    0.002192]

  V1^2 = 0.8949, V2^2 = 0.1051

  Important amplitudes:
     core i     occ j      vir a      vir b          v   
    ------------------------------------------------------
     5 (A) A              28 (A) A                 0.5698
     5 (A) A              25 (A) A                -0.4714
    ------------------------------------------------------
  ----------------------------------------------------------------------------


  Excited state 13 (A)                                             [converged]
  ----------------------------------------------------------------------------
  Term symbol:  14 (-) A                                    R^2 =  2.60395e-13

  Total energy:                                           -424.3153694129 a.u.
  Excitation energy:                                             314.985614 eV

  Osc. strength:                                                      0.000003
  Trans. dip. moment [a.u.]:           [  -0.000159,   -0.000111,   -0.000638]
  <i|r^2|0> [a.u.]:                    [   0.000345,   -0.001166,    0.000508]

  V1^2 = 0.8950, V2^2 = 0.1050

  Important amplitudes:
     core i     occ j      vir a      vir b          v   
    ------------------------------------------------------
     5 (A) A              27 (A) A                -0.5176
     5 (A) B              27 (A) B                 0.5071
    ------------------------------------------------------
  ----------------------------------------------------------------------------


  Excited state 14 (A)                                             [converged]
  ----------------------------------------------------------------------------
  Term symbol:  15 (-) A                                    R^2 =  6.24952e-13

  Total energy:                                           -424.2989556379 a.u.
  Excitation energy:                                             315.432255 eV

  Osc. strength:                                                      0.032071
  Trans. dip. moment [a.u.]:           [   0.030541,    0.008750,    0.056042]
  <i|r^2|0> [a.u.]:                    [  -0.058646,    0.094816,   -0.040842]

  V1^2 = 0.8983, V2^2 = 0.1017

  Important amplitudes:
     core i     occ j      vir a      vir b          v   
    ------------------------------------------------------
     5 (A) B              27 (A) B                 0.5624
     5 (A) A              27 (A) A                 0.5519
    ------------------------------------------------------
  ----------------------------------------------------------------------------


  Excited state 15 (A)                                             [converged]
  ----------------------------------------------------------------------------
  Term symbol:  16 (-) A                                    R^2 =  2.48471e-13

  Total energy:                                           -424.2986864291 a.u.
  Excitation energy:                                             315.439581 eV

  Osc. strength:                                                      0.031993
  Trans. dip. moment [a.u.]:           [   0.052358,   -0.028602,   -0.024089]
  <i|r^2|0> [a.u.]:                    [  -0.100070,   -0.311617,    0.019206]

  V1^2 = 0.8980, V2^2 = 0.1020

  Important amplitudes:
     core i     occ j      vir a      vir b          v   
    ------------------------------------------------------
     5 (A) B              28 (A) B                 0.6150
     5 (A) A              28 (A) A                 0.4884
    ------------------------------------------------------
  ----------------------------------------------------------------------------


  Excited state 16 (A)                                             [converged]
  ----------------------------------------------------------------------------
  Term symbol:  17 (-) A                                    R^2 =  8.42989e-12

  Total energy:                                           -424.1863031361 a.u.
  Excitation energy:                                             318.497686 eV

  Osc. strength:                                                      0.000503
  Trans. dip. moment [a.u.]:           [  -0.002612,   -0.007085,    0.002726]
  <i|r^2|0> [a.u.]:                    [   0.007262,   -0.075110,    0.000331]

  V1^2 = 0.8912, V2^2 = 0.1088

  Important amplitudes:
     core i     occ j      vir a      vir b          v   
    ------------------------------------------------------
     5 (A) A              29 (A) A                -0.7312
     5 (A) B              29 (A) B                 0.5053
    ------------------------------------------------------
  ----------------------------------------------------------------------------


  Excited state 17 (A)                                             [converged]
  ----------------------------------------------------------------------------
  Term symbol:  18 (-) A                                    R^2 =  9.01873e-12

  Total energy:                                           -424.1617515289 a.u.
  Excitation energy:                                             319.165769 eV

  Osc. strength:                                                      0.015516
  Trans. dip. moment [a.u.]:           [  -0.014587,   -0.039348,    0.014940]
  <i|r^2|0> [a.u.]:                    [   0.039922,   -0.417580,    0.001433]

  V1^2 = 0.8923, V2^2 = 0.1077

  Important amplitudes:
     core i     occ j      vir a      vir b          v   
    ------------------------------------------------------
     5 (A) B              29 (A) B                -0.7495
     5 (A) A              29 (A) A                -0.5275
    ------------------------------------------------------
  ----------------------------------------------------------------------------


  Excited state 18 (A)                                         [not converged]
  ----------------------------------------------------------------------------
  Term symbol:  19 (-) A                                    R^2 =  2.19496e-06

  Total energy:                                           -423.6974394908 a.u.
  Excitation energy:                                             331.800342 eV


  V1^2 = 0.8678, V2^2 = 0.1322

  Important amplitudes:
     core i     occ j      vir a      vir b          v   
    ------------------------------------------------------
     5 (A) A              30 (A) A                -0.8516
     5 (A) A              35 (A) A                -0.2913
    ------------------------------------------------------
  ----------------------------------------------------------------------------


  Excited state 19 (A)                                         [not converged]
  ----------------------------------------------------------------------------
  Term symbol:  20 (-) A                                    R^2 =  1.50692e-06

  Total energy:                                           -423.6918555059 a.u.
  Excitation energy:                                             331.952290 eV


  V1^2 = 0.8677, V2^2 = 0.1323

  Important amplitudes:
     core i     occ j      vir a      vir b          v   
    ------------------------------------------------------
     5 (A) B              30 (A) B                -0.8676
     5 (A) B              35 (A) B                -0.2398
    ------------------------------------------------------
  ----------------------------------------------------------------------------


  Excited state 20 (A)                                         [not converged]
  ----------------------------------------------------------------------------
  Term symbol:  21 (-) A                                    R^2 =  1.15000e-05

  Total energy:                                           -423.6849013374 a.u.
  Excitation energy:                                             332.141523 eV


  V1^2 = 0.8678, V2^2 = 0.1322

  Important amplitudes:
     core i     occ j      vir a      vir b          v   
    ------------------------------------------------------
     5 (A) A              31 (A) A                -0.8052
     5 (A) A              33 (A) A                 0.3514
    ------------------------------------------------------
  ----------------------------------------------------------------------------


--------------------------------------------------------------------------------
  Time of ADC calculation:  CPU 1468.82 s  wall 1506.96 s
================================================================================
 
 --------------------------------------------------------------
 
                    Orbital Energies (a.u.)
 --------------------------------------------------------------
 
 Alpha MOs
 -- Occupied --
-26.739 -26.739 -26.736 -26.645 -11.957  -2.154  -2.049  -2.044
 -1.904  -1.318  -1.226  -1.225  -1.181  -1.082  -1.063  -1.058
 -1.038  -1.026  -1.013  -0.955  -0.952
 -- Virtual --
 -0.254   0.109   0.170   0.170   0.362   0.399   0.400   0.502
  0.936   0.973   0.999   1.018   1.020   1.036   1.196   1.218
  1.226   1.292   1.292   1.312   1.359   1.380   1.412   1.630
  1.642   1.656   1.728   1.733   1.783   1.797   1.803   1.878
  1.882   1.924   1.940   1.947   2.016   2.019   2.053   2.055
  2.400   2.610   2.616   2.737   2.919   2.923   3.163   3.165
  3.301   3.769   4.311   4.631   4.647   7.025
 
 Beta MOs
 -- Occupied --
-26.739 -26.739 -26.736 -26.596 -11.957  -2.153  -2.048  -2.044
 -1.713  -1.318  -1.226  -1.225  -1.178  -1.062  -1.062  -1.037
 -1.037  -1.013  -0.903  -0.902
 -- Virtual --
 -0.254  -0.149   0.111   0.170   0.174   0.362   0.399   0.403
  0.509   0.947   1.005   1.011   1.022   1.049   1.055   1.224
  1.232   1.243   1.292   1.292   1.312   1.391   1.414   1.458
  1.645   1.654   1.681   1.735   1.736   1.783   1.831   1.835
  1.924   1.929   1.932   1.948   1.951   2.033   2.055   2.065
  2.069   2.402   2.610   2.617   2.745   2.919   2.923   3.163
  3.165   3.303   3.805   4.311   4.631   4.648   7.027
 --------------------------------------------------------------
 
          Ground-State Mulliken Net Atomic Charges

     Atom                 Charge (a.u.)    Spin (a.u.)
  --------------------------------------------------------
      1 C                     1.341926      -0.006459
      2 F                    -0.121945       0.001612
      3 F                    -0.121845       0.001452
      4 F                     0.025972       1.004042
      5 F                    -0.124109      -0.000647
  --------------------------------------------------------
  Sum of atomic charges =     1.000000
  Sum of spin   charges =     1.000000

 -----------------------------------------------------------------
                    Cartesian Multipole Moments
 -----------------------------------------------------------------
    Charge (ESU x 10^10)
                 4.8032
    Dipole Moment (Debye)
         X      -2.4302      Y      13.7266      Z      -0.8770
       Tot      13.9676
    Quadrupole Moments (Debye-Ang)
        XX     -19.2600     XY      -6.6867     YY      19.5885
        XZ       0.0034     YZ      -2.9191     ZZ     -20.8104
    Octopole Moments (Debye-Ang^2)
       XXX      41.7314    XXY     -45.9664    XYY      -3.9556
       YYY     -27.2763    XXZ       1.1310    XYZ       0.2525
       YYZ      -9.3479    XZZ      13.5120    YZZ     -48.9730
       ZZZ       0.2962
    Hexadecapole Moments (Debye-Ang^3)
      XXXX    -128.0286   XXXY      96.2448   XXYY    -147.0122
      XYYY      47.3703   YYYY    -427.5803   XXXZ      -0.8649
      XXYZ       3.8322   XYYZ       1.4025   YYYZ     -24.9492
      XXZZ     -32.0438   XYZZ      30.6947   YYZZ    -142.7402
      XZZZ       1.3843   YZZZ       6.3126   ZZZZ     -72.4275
 -----------------------------------------------------------------
Archival summary:
1\1\tp-linux1\SP\HF\6-31G*\41(1+,2)\thomas\WedMar2217:04:592017WedMar2217:04:592017\0\\#,HF,6-31G*,\\1,2\C\F,1,1.23689\F,1,1.23703,2,117.333\F,1,1.24191,2,117.106,3,147.223,0\F,1,2.18849,2,79.6024,3,72.5656,0\\HF=-435.14064\\@

 Total job time:  1520.63s(wall), 1479.06s(cpu) 
 Wed Mar 22 17:04:59 2017

        *************************************************************
        *                                                           *
        *  Thank you very much for using Q-Chem.  Have a nice day.  *
        *                                                           *
        *************************************************************


0 sent ACK to 0 
now end server 0 ... 
cleanup process ... done
