
Running Job 1 of 1 ddtraj1t12.inp
qchem ddtraj1t12.inp_4735.0 /scratch/qchem/qchem4735/ 1
/mnt/software/qchem/bin/mpi/mpirun_qchem -machinefile /mnt/software/qchem/bin/mpi/machines -np 1 /mnt/software/qchem/exe/qcprog.exe ddtraj1t12.inp_4735.0 /scratch/qchem/qchem4735/

Process 0 of 1 is on tp-linux1 - thread support 0
initial socket setup ...start
initial socket setup ...done 
now start server 0 ... 

cmd = ssh tp-linux1 /mnt/software/qchem/bin/get_hostid 827112587 > /scratch/qchem/qchem4735/lic.dat
                  Welcome to Q-Chem
     A Quantum Leap Into The Future Of Chemistry


 Q-Chem 4.3, Q-Chem, Inc., Pleasanton, CA (2015)

 Y. Shao,  Z. Gan,  E. Epifanovsky,  A. T. B. Gilbert,  M. Wormit,  
 J. Kussmann,  A. W. Lange,  A. Behn,  J. Deng,  X. Feng,  D. Ghosh,  
 M. Goldey,  P. R. Horn,  L. D. Jacobson,  I. Kaliman,  R. Z. Khaliullin,  
 T. Kus,  A. Landau,  J. Liu,  E. I. Proynov,  Y. M. Rhee,  R. M. Richard,  
 M. A. Rohrdanz,  R. P. Steele,  E. J. Sundstrom,  H. L. Woodcock III,  
 P. M. Zimmerman,  D. Zuev,  B. Albrecht,  E. Alguire,  B. Austin,  
 S. A. Baeppler,  G. J. O. Beran,  Y. A. Bernard,  E. Berquist,  
 K. Brandhorst,  K. B. Bravaya,  S. T. Brown,  D. Casanova,  C.-M. Chang,  
 Y. Chen,  S. H. Chien,  K. D. Closser,  D. L. Crittenden,  M. Diedenhofen,  
 R. A. DiStasio Jr.,  H. Do,  A. D. Dutoi,  R. G. Edgar,  P.-T. Fang,  
 S. Fatehi,  Q. Feng,  L. Fusti-Molnar,  A. Ghysels,  
 A. Golubeva-Zadorozhnaya,  J. Gomes,  A. Gunina,  M. W. D. Hanson-Heine,  
 P. H. P. Harbach,  A. W. Hauser,  E. G. Hohenstein,  Z. C. Holden,  K. Hui,  
 T.-C. Jagau,  H. Ji,  B. Kaduk,  K. Khistyaev,  Jaehoon Kim,  Jihan Kim,  
 R. A. King,  P. Klunzinger,  D. Kosenkov,  T. Kowalczyk,  C. M. Krauter,  
 K. U. Lao,  A. Laurent,  K. V. Lawler,  S. Lehtola,  S. V. Levchenko,  
 C. Y. Lin,  Y.-S. Lin,  F. Liu,  E. Livshits,  R. C. Lochan,  A. Luenser,  
 P. Manohar,  S. F. Manzer,  S.-P. Mao,  N. Mardirossian,  A. V. Marenich,  
 L. A. Martinez-Martinez,  S. A. Maurer,  N. J. Mayhall,  K. Nanda,  
 C. M. Oana,  R. Olivares-Amaya,  D. P. O'Neill,  J. A. Parkhill,  
 T. M. Perrine,  R. Peverati,  P. A. Pieniazek,  F. Plasser,  A. Prociuk,  
 D. R. Rehn,  E. Rosta,  N. J. Russ,  N. Sergueev,  S. M. Sharada,  
 S. Sharma,  D. W. Small,  A. Sodt,  T. Stauch,  T. Stein,  D. Stuck,  
 Y.-C. Su,  A. J. W. Thom,  T. Tsuchimochi,  L. Vogt,  O. Vydrov,  T. Wang,  
 M. A. Watson,  J. Wenzel,  A. White,  C. F. Williams,  V. Vanovschi,  
 S. Yeganeh,  S. R. Yost,  Z.-Q. You,  I. Y. Zhang,  X. Zhang,  Y. Zhao,  
 B. R. Brooks,  G. K. L. Chan,  D. M. Chipman,  C. J. Cramer,  
 W. A. Goddard III,  M. S. Gordon,  W. J. Hehre,  A. Klamt,  
 H. F. Schaefer III,  M. W. Schmidt,  C. D. Sherrill,  D. G. Truhlar,  
 A. Warshel,  X. Xu,  A. Aspuru-Guzik,  R. Baer,  A. T. Bell,  N. A. Besley,  
 J.-D. Chai,  A. Dreuw,  B. D. Dunietz,  T. R. Furlani,  S. R. Gwaltney,  
 C.-P. Hsu,  Y. Jung,  J. Kong,  D. S. Lambrecht,  W. Liang,  C. Ochsenfeld,  
 V. A. Rassolov,  L. V. Slipchenko,  J. E. Subotnik,  T. Van Voorhis,  
 J. M. Herbert,  A. I. Krylov,  P. M. W. Gill,  M. Head-Gordon

 Contributors to earlier versions of Q-Chem not listed above: 
 R. D. Adamson,  J. Baker,  E. F. C. Byrd,  A. K. Chakraborty,  C.-L. Cheng,  
 H. Dachsel,  R. J. Doerksen,  G. Hawkins,  A. Heyden,  S. Hirata,  
 G. Kedziora,  F. J. Keil,  C. Kelley,  P. P. Korambath,  W. Kurlancheek,  
 A. M. Lee,  M. S. Lee,  D. Liotard,  I. Lotan,  P. E. Maslen,  N. Nair,  
 D. Neuhauser,  R. Olson,  B. Peters,  J. Ritchie,  N. E. Schultz,  
 N. Shenvi,  A. C. Simmonett,  K. S. Thanthiriwatte,  Q. Wu,  W. Zhang

 Please cite Q-Chem as follows:
 Y. Shao et al., Mol. Phys. 113, 184-215 (2015)
 DOI: 10.1080/00268976.2014.952696

 Q-Chem 4.3.0 for Intel X86 Linux

 Parts of Q-Chem use Armadillo 5.200.1 (Boston Tea Smuggler).
 http://arma.sourceforge.net/

 Q-Chem begins on Wed Mar 22 15:22:31 2017  

Host: 
0

     Scratch files written to /scratch/qchem/qchem4735//
 Nov1815 1189b_ 19540  19532 5443   
 Parallel job on  1  processors
Processing $rem in /mnt/software/qchem/config/preferences.
 MEM_TOTAL  2000 

Checking the input file for inconsistencies... 	...done.

--------------------------------------------------------------
User input:
--------------------------------------------------------------
$comment
XAS calculation for valence excited states for CF4+ using cvs-adc(2) + 6-31G* basis set
job 1 - determination of HF orbitals
$end

$molecule
1 2
6  -0.545187  2.76539  -0.157595
9  0.577661  2.315816  0.00931
9  -1.143844  3.251906  0.788345
9  -1.19009  1.030924  0.497168
9  -1.138445  2.537462  -1.195281
$end

$comment
cvs-adc(2) calculation
$end

$rem
mem_total 3000
mem_static 1500
sym_ignore true
method cvs-adc(2)
basis 6-31G*
ee_singlets 20
cc_rest_occ 5                  !only excitations from the lowest N orbitals
unrestricted  true
max_scf_cycles 200
SCF_ALGORITHM = DIIS_GDM
SCF_CONVERGENCE = 7
THRESH = 10
$end
--------------------------------------------------------------
 ----------------------------------------------------------------
             Standard Nuclear Orientation (Angstroms)
    I     Atom           X                Y                Z
 ----------------------------------------------------------------
    1      C      -0.5451870000     2.7653900000    -0.1575950000
    2      F       0.5776610000     2.3158160000     0.0093100000
    3      F      -1.1438440000     3.2519060000     0.7883450000
    4      F      -1.1900900000     1.0309240000     0.4971680000
    5      F      -1.1384450000     2.5374620000    -1.1952810000
 ----------------------------------------------------------------
 Nuclear Repulsion Energy =   203.0292584830 hartrees
 There are       21 alpha and       20 beta electrons
 Requested basis set is 6-31G(d)
 There are 20 shells and 75 basis functions

 Total QAlloc Memory Limit   3000 MB
 Mega-Array Size      1467 MB
 MEM_STATIC part      1500 MB

                       Distance Matrix (Angstroms)
             C (  1)   F (  2)   F (  3)   F (  4)
   F (  2)  1.220968
   F (  3)  1.220611  2.108729
   F (  4)  1.962903  2.239173  2.240465
   F (  5)  1.216840  2.108361  2.108372  2.266431
 
 tim1(1): 
  0.000000000000000E+000
 tim1(2): 
  0.000000000000000E+000
 A cutoff of  1.0D-10 yielded    203 shell pairs
 There are      2978 function pairs
 
 -------------------------------------------------------
 OpenMP Integral Computing Module                       
 Release: version 1.0, May 2013, Q-Chem Inc. Pittsburgh 
 -------------------------------------------------------
 Integral Job Info:
 Integral job number is                      11
 Integral operator is                         1
 short-range coefficients                     0
 long-range coefficients              100000000
 Omega coefficients                           0
 if combine SR and LR in K                    0
 Integral screening is                        0
 Integral computing path is                   2
 max size of driver memory is            800000
 size of driver memory is                593474
 size of scratch memory is              2260544
 max col of scratch BK array               1296
 max len of scratch array in speh3          155
 max len of scratch index in speh4           18
 max int batch size is                      520
 min int batch size is                       52
 fixed nKL is                                52
 max L of basis functions is                  2
 order of int derivative is                   0
 number of shells is                         20
 number of basis is                          75
 number of cartesian basis is                75
 number of contracted shell pairs           203
 number of primitive shell pairs           1046
 maxK2 (contraction) of shell pair           36
 max number of K2 of shell pair               1
 max number of CS2 of shell pair             32
 max number of PS2 of shell pair            192
 mem total for path MDJ                   21832
 -------------------------------------------------------
 Smallest overlap matrix eigenvalue = 1.33E-03

 Scale SEOQF with 1.000000e+00/1.000000e-01/1.000000e+00

 Standard Electronic Orientation quadrupole field applied
 Nucleus-field energy     =     0.0000000107 hartrees
 Guess from superposition of atomic densities
 Warning:  Energy on first SCF cycle will be non-variational
 An unrestricted Hartree-Fock SCF calculation will be
 performed using Pulay DIIS + Geometric Direct Minimization
 SCF converges when RMS gradient is below 1.0E-07
 ---------------------------------------
  Cycle       Energy         DIIS Error
 ---------------------------------------
    1    -436.5226230103      9.27E-02
    2    -434.9192690172      1.82E-02
    3    -435.1171455072      8.01E-03 Done DIIS. Switching to GDM
    4    -435.1503888442      3.06E-02 Normal BFGS step
    5    -435.1525851958      1.04E-02 Normal BFGS step
    6    -435.1531516340      4.82E-03 Normal BFGS step
    7    -435.1532149397      4.45E-03 Normal BFGS step
    8    -435.1532963816      3.78E-03 Normal BFGS step
    9    -435.1533914800      3.23E-03 Normal BFGS step
   10    -435.1535561277      3.38E-03 Normal BFGS step
   11    -435.1537560389      3.39E-03 Normal BFGS step
   12    -435.1539105007      2.29E-03 Normal BFGS step
   13    -435.1539696479      1.29E-03 Normal BFGS step
   14    -435.1539793969      5.06E-04 Normal BFGS step
   15    -435.1539809700      1.62E-04 Normal BFGS step
   16    -435.1539813489      1.62E-04 Normal BFGS step
   17    -435.1539814415      1.61E-04 Normal BFGS step
   18    -435.1539815080      1.61E-04 Normal BFGS step
   19    -435.1539816269      1.61E-04 Normal BFGS step
   20    -435.1539819095      1.61E-04 Normal BFGS step
   21    -435.1539826152      1.88E-04 Normal BFGS step
   22    -435.1539844610      3.07E-04 Normal BFGS step
   23    -435.1539895154      5.06E-04 Normal BFGS step
   24    -435.1539996081      1.10E-03 Normal BFGS step
   25    -435.1540139993      1.24E-03 Line search: understep
   26    -435.1538708407      1.38E-02 Line search: overstep
   27    -435.1540278820      1.29E-03 Dog-leg BFGS step
   28    -435.1540743199      3.44E-04 Dog-leg BFGS step
   29    -435.1540905973      1.94E-03 Dog-leg BFGS step
   30    -435.1541071779      1.88E-03 Normal BFGS step
   31    -435.1541215870      1.39E-03 Normal BFGS step
   32    -435.1541522646      1.40E-03 Normal BFGS step
   33    -435.1541530934      3.36E-03 Normal BFGS step
   34    -435.1540297614      6.04E-03 Line search: overstep
   35    -435.1541673030      2.22E-03 Normal BFGS step
   36    -435.1541854438      1.11E-03 Normal BFGS step
   37    -435.1541923176      8.20E-04 Normal BFGS step
   38    -435.1541953962      7.93E-04 Normal BFGS step
   39    -435.1542001579      8.27E-04 Normal BFGS step
   40    -435.1542025136      3.10E-04 Normal BFGS step
   41    -435.1542036091      5.23E-04 Normal BFGS step
   42    -435.1542043468      1.01E-04 Normal BFGS step
   43    -435.1542046114      4.86E-05 Normal BFGS step
   44    -435.1542047118      3.28E-05 Normal BFGS step
   45    -435.1542047270      2.98E-05 Normal BFGS step
   46    -435.1542047406      2.25E-05 Normal BFGS step
   47    -435.1542047470      1.78E-05 Normal BFGS step
   48    -435.1542047545      1.89E-05 Normal BFGS step
   49    -435.1542047583      1.11E-05 Normal BFGS step
   50    -435.1542047595      3.52E-06 Normal BFGS step
   51    -435.1542047598      1.61E-06 Normal BFGS step
   52    -435.1542047598      6.36E-07 Normal BFGS step
   53    -435.1542047598      3.57E-07 Normal BFGS step
   54    -435.1542047598      1.26E-07 Normal BFGS step
   GDM::WARNING energy changes are now smaller than effective accuracy.
   GDM::        calculation will continue, but THRESH should be increased
   GDM::        or SCF_CONVERGENCE decreased.
   GDM::        effective_thresh =   1.283970024051895E-009
   55    -435.1542047598      6.44E-08 Convergence criterion met
 ---------------------------------------
 <S^2> = 0.7532
 SCF time:  CPU 8.08 s  wall 14.94 s
 SCF   energy in the final basis set = -435.1542047598
 Total energy in the final basis set = -435.1542047598
================================================================================
|                                                                              |
|                                 A D C  M A N                                 |
|                                                                              |
 ------------------------------------------------------------------------------ 
|                                                                              |
| Components:                                                                  |
|                                                                              |
| - libvmm - 1.2-release                                                       |
|   Authors:                                                                   |
|   Evgeny Epifanovsky, Ilya Kaliman                                           |
|                                                                              |
| - libtensor - 2.4-trunk                                                      |
|   Authors:                                                                   |
|   Evgeny Epifanovsky, Michael Wormit, Dmitry Zuev, Sam Manzer                |
|                                                                              |
| - libwfa - 1.1-beta                                                          |
|   Authors:                                                                   |
|   Felix Plasser, Stefanie Baeppler, Benjamin Thomitzni, Michael Wormit       |
|                                                                              |
| - libadc - 1.0-beta                                                          |
|   Authors:                                                                   |
|   Michael Wormit, Philipp H. P. Harbach, Caroline Krauter, Dirk Rehn,        |
|   Matthias Schneider, Jan Wenzel                                             |
|                                                                              |
| - adcman - 2.4-beta                                                          |
|   Authors:                                                                   |
|   Michael Wormit, Philipp H. P. Harbach, Caroline Krauter, Dirk Rehn,        |
|   Jan Wenzel, Andreas Dreuw                                                  |
|                                                                              |
| Authors of earlier versions of ADCMAN:                                       |
| Andreas Dreuw, Jan Hendrik Starcke, Dirk Rehn, Michael Wormit                |
|                                                                              |
================================================================================

 
 Alpha MOs, Unrestricted
 -- Occupied --                  
-26.733 -26.733 -26.733 -26.689 -11.947  -2.165  -2.057  -2.056
  1 A     2 A     3 A     4 A     5 A     6 A     7 A     8 A                  
 -1.949  -1.318  -1.234  -1.234  -1.198  -1.120  -1.065  -1.062
  9 A    10 A    11 A    12 A    13 A    14 A    15 A    16 A                  
 -1.054  -1.032  -1.013  -0.988  -0.986
 17 A    18 A    19 A    20 A    21 A                                          
 -- Virtual --                   
 -0.184   0.077   0.212   0.217   0.384   0.419   0.425   0.493
 22 A    23 A    24 A    25 A    26 A    27 A    28 A    29 A                  
  0.939   0.966   0.997   1.017   1.018   1.048   1.231   1.233
 30 A    31 A    32 A    33 A    34 A    35 A    36 A    37 A                  
  1.241   1.290   1.293   1.313   1.333   1.358   1.438   1.606
 38 A    39 A    40 A    41 A    42 A    43 A    44 A    45 A                  
  1.619   1.634   1.727   1.728   1.780   1.787   1.793   1.941
 46 A    47 A    48 A    49 A    50 A    51 A    52 A    53 A                  
  1.943   1.957   1.962   2.007   2.019   2.039   2.052   2.209
 54 A    55 A    56 A    57 A    58 A    59 A    60 A    61 A                  
  2.308   2.702   2.705   2.744   3.006   3.011   3.244   3.247
 62 A    63 A    64 A    65 A    66 A    67 A    68 A    69 A                  
  3.300   3.816   4.359   4.905   4.915   6.860
 70 A    71 A    72 A    73 A    74 A    75 A                                  
 
 Beta MOs, Unrestricted
 -- Occupied --                  
-26.733 -26.733 -26.733 -26.640 -11.947  -2.164  -2.057  -2.056
  1 A     2 A     3 A     4 A     5 A     6 A     7 A     8 A                  
 -1.759  -1.318  -1.234  -1.234  -1.192  -1.064  -1.063  -1.049
  9 A    10 A    11 A    12 A    13 A    14 A    15 A    16 A                  
 -1.043  -1.013  -0.940  -0.937
 17 A    18 A    19 A    20 A                                                  
 -- Virtual --                   
 -0.189  -0.183   0.081   0.217   0.219   0.385   0.424   0.425
 21 A    22 A    23 A    24 A    25 A    26 A    27 A    28 A                  
  0.500   0.950   1.006   1.015   1.019   1.055   1.067   1.239
 29 A    30 A    31 A    32 A    33 A    34 A    35 A    36 A                  
  1.243   1.252   1.292   1.293   1.313   1.371   1.438   1.439
 37 A    38 A    39 A    40 A    41 A    42 A    43 A    44 A                  
  1.624   1.633   1.660   1.739   1.740   1.786   1.838   1.842
 45 A    46 A    47 A    48 A    49 A    50 A    51 A    52 A                  
  1.945   1.948   1.975   1.977   2.011   2.047   2.052   2.079
 53 A    54 A    55 A    56 A    57 A    58 A    59 A    60 A                  
  2.220   2.313   2.703   2.705   2.755   3.006   3.011   3.244
 61 A    62 A    63 A    64 A    65 A    66 A    67 A    68 A                  
  3.247   3.301   3.849   4.360   4.906   4.916   6.861
 69 A    70 A    71 A    72 A    73 A    74 A    75 A                          
 

--------------------------------------------------------------------------------
                                   HF Summary                                   
--------------------------------------------------------------------------------
  Energy:                                                 -435.1542047598 a.u.
  Dip. moment [a.u.]:                  [ -54.299624,  181.727234,    0.128636]
  Total dipole [Debye]:                                             482.083390
  <r^2> [a.u.]:                        [ 160.299823,  906.496793,   89.874774]
  Total <r^2> [a.u.]:                                              1156.671391
--------------------------------------------------------------------------------

--------------------------------------------------------------------------------
                                 MP(2) Summary                                  
--------------------------------------------------------------------------------
  Energy contribution:                                      -0.7436571847 a.u.
  Total energy:                                           -435.8978619445 a.u.
  Dip. moment [a.u.]:                  [ -54.272461,  181.799716,    0.101763]
  Total dipole [Debye]:                                             482.240116
  <r^2> [a.u.]:                        [ 160.014988,  907.364272,   89.656706]
  Total <r^2> [a.u.]:                                              1157.035965
--------------------------------------------------------------------------------
  Starting Davidson ... 
--------------------------------------------------------------------------------
   It NVec Conv  Avg. Norm  Max. Norm  Conv. states           Remark
--------------------------------------------------------------------------------
        20    0  2.089e-01  1.128e+00 10.9765 n n n n n n n n Guess.
    1   40    0  3.536e-02  3.811e-01 10.8207 n n n n n n n n 
    2   60    0  8.905e-03  1.060e-01 10.8194 n n n n n n n n 
    3   80    0  2.847e-03  3.364e-02 10.8194 n n n n n n n n 
    4  100    0  1.960e-03  2.546e-02 10.8194 n n n n n n n n 
    5   40    0  6.194e-04  7.712e-03 10.8194 n n n n n n n n Subspace collapsed.
    6   60    0  5.098e-04  7.216e-03 10.8194 n n n n n n n n 
    7   80    1  3.479e-04  4.265e-03 10.8194 y n n n n n n n 
    8  100    2  2.444e-04  3.131e-03 10.8194 y y n n n n n n 
    9   40    5  1.217e-04  1.643e-03 10.8194 y y n n y y y n Subspace collapsed.
   10   60    7  8.567e-05  1.039e-03 10.8194 y y n n y y y y 
   11   80   10  7.637e-05  1.059e-03 10.8194 y y y y y y y y 
   12  100   12  8.405e-05  1.067e-03 10.8194 y y y y y y y y 
   13   40   15  4.530e-05  6.016e-04 10.8194 y y y y y y y y Subspace collapsed.
   14   60   15  4.135e-05  5.389e-04 10.8194 y y y y y y y y 
   15   80   15  3.861e-05  5.931e-04 10.8194 y y y y y y y y 
   16   98   15  3.999e-05  5.768e-04 10.8194 y y y y y y y y 
   17  100   15  3.977e-05  5.728e-04 10.8194 y y y y y y y y 
   18   38   16  2.270e-05  3.488e-04 10.8194 y y y y y y y y Subspace collapsed.
   19   56   16  2.064e-05  2.829e-04 10.8194 y y y y y y y y 
   20   58   16  2.060e-05  2.826e-04 10.8194 y y y y y y y y 
   21   60   16  2.059e-05  2.823e-04 10.8194 y y y y y y y y 
   22   76   16  1.732e-05  2.350e-04 10.8194 y y y y y y y y 
   23   88   16  1.715e-05  2.214e-04 10.8194 y y y y y y y y 
   24   88   16  1.715e-05  2.214e-04 10.8194 y y y y y y y y 
   25  100   16  1.772e-05  2.284e-04 10.8194 y y y y y y y y 
   26   31   17  1.119e-05  1.657e-04 10.8194 y y y y y y y y Subspace collapsed.
   27   42   17  1.066e-05  1.606e-04 10.8194 y y y y y y y y 
   28   53   17  9.407e-06  1.544e-04 10.8194 y y y y y y y y 
   29   54   17  9.353e-06  1.535e-04 10.8194 y y y y y y y y 
   30   55   17  9.355e-06  1.535e-04 10.8194 y y y y y y y y 
   31   56   17  9.364e-06  1.536e-04 10.8194 y y y y y y y y 
   32   66   17  8.716e-06  1.353e-04 10.8194 y y y y y y y y 
   33   76   17  8.892e-06  1.411e-04 10.8194 y y y y y y y y 
   34   77   17  8.892e-06  1.411e-04 10.8194 y y y y y y y y 
   35   78   17  8.924e-06  1.417e-04 10.8194 y y y y y y y y 
   36   78   17  8.924e-06  1.417e-04 10.8194 y y y y y y y y 
   37   78   17  8.924e-06  1.417e-04 10.8194 y y y y y y y y 
   38   98   17  4.345e-06  6.426e-05 10.8194 y y y y y y y y 
   39  100   17  4.217e-06  6.135e-05 10.8194 y y y y y y y y 
   40   25   17  2.174e-06  3.277e-05 10.8194 y y y y y y y y Subspace collapsed.
   41   30   17  1.395e-06  2.033e-05 10.8194 y y y y y y y y 
   42   35   17  9.831e-07  1.395e-05 10.8194 y y y y y y y y 
   43   40   17  8.461e-07  1.366e-05 10.8194 y y y y y y y y 
   44   45   17  8.398e-07  1.389e-05 10.8194 y y y y y y y y 
   45   50   17  9.379e-07  1.592e-05 10.8194 y y y y y y y y 
   46   55   17  9.648e-07  1.702e-05 10.8194 y y y y y y y y 
   47   60   17  9.012e-07  1.628e-05 10.8194 y y y y y y y y 
   48   65   17  4.938e-07  9.031e-06 10.8194 y y y y y y y y 
   49   70   18  1.879e-07  3.370e-06 10.8194 y y y y y y y y 
   50   75   18  1.191e-07  1.994e-06 10.8194 y y y y y y y y 
   51   80   19  9.763e-08  1.720e-06 10.8194 y y y y y y y y 
   52   85   18  9.622e-08  1.423e-06 10.8194 y y y y y y y y 
   53   85   18  9.622e-08  1.423e-06 10.8194 y y y y y y y y 
   54   85   18  9.622e-08  1.423e-06 10.8194 y y y y y y y y 
   55  100   18  9.789e-08  1.473e-06 10.8194 y y y y y y y y 
   56   20   18  9.789e-08  1.473e-06 10.8194 y y y y y y y y Subspace collapsed.
   57   20   18  9.789e-08  1.473e-06 10.8194 y y y y y y y y 
   58   21   18  9.790e-08  1.474e-06 10.8194 y y y y y y y y 
   59   21   18  9.790e-08  1.474e-06 10.8194 y y y y y y y y 
--------------------------------------------------------------------------------
  Davidson Summary: 
 ------------------------------------------------------------
  State  0: excitation energy =  10.8194 a.u.   (converged)
  State  1: excitation energy =  10.8917 a.u.   (converged)
  State  2: excitation energy =  11.0689 a.u.   (converged)
  State  3: excitation energy =  11.1606 a.u.   (converged)
  State  4: excitation energy =  11.2307 a.u.   (converged)
  State  5: excitation energy =  11.2334 a.u.   (converged)
  State  6: excitation energy =  11.2378 a.u.   (converged)
  State  7: excitation energy =  11.3138 a.u.   (converged)
  State  8: excitation energy =  11.3181 a.u.   (converged)
  State  9: excitation energy =  11.5192 a.u.   (converged)
  State 10: excitation energy =  11.5714 a.u.   (converged)
  State 11: excitation energy =  11.5842 a.u.   (converged)
  State 12: excitation energy =  11.5865 a.u.   (converged)
  State 13: excitation energy =  11.5998 a.u.   (converged)
  State 14: excitation energy =  11.6008 a.u.   (converged)
  State 15: excitation energy =  11.7030 a.u.   (converged)
  State 16: excitation energy =  11.7260 a.u.   (converged)
  State 17: excitation energy =  12.1860 a.u.   (not converged)
  State 18: excitation energy =  12.1930 a.u.   (converged)
  State 19: excitation energy =  12.1943 a.u.   (not converged)
 ------------------------------------------------------------


--------------------------------------------------------------------------------
                             Excited State Summary
--------------------------------------------------------------------------------

  Excited state  1 (A)                                             [converged]
  ----------------------------------------------------------------------------
  Term symbol:  2 (-) A                                     R^2 =  4.49864e-14

  Total energy:                                           -425.0784669362 a.u.
  Excitation energy:                                             294.410711 eV

  Osc. strength:                                                      0.000005
  Trans. dip. moment [a.u.]:           [   0.000290,    0.000762,   -0.000274]
  <i|r^2|0> [a.u.]:                    [  -0.000577,    0.007954,    0.000182]

  V1^2 = 0.9594, V2^2 = 0.0406

  Important amplitudes:
     core i     occ j      vir a      vir b          v   
    ------------------------------------------------------
     5 (A) A              22 (A) A                 0.6530
     5 (A) B              22 (A) B                -0.6436
    ------------------------------------------------------
  ----------------------------------------------------------------------------


  Excited state  2 (A)                                             [converged]
  ----------------------------------------------------------------------------
  Term symbol:  3 (-) A                                     R^2 =  7.88078e-14

  Total energy:                                           -425.0061409636 a.u.
  Excitation energy:                                             296.378801 eV

  Osc. strength:                                                      0.111477
  Trans. dip. moment [a.u.]:           [  -0.041876,   -0.109767,    0.039372]
  <i|r^2|0> [a.u.]:                    [   0.083577,   -1.152124,   -0.026093]

  V1^2 = 0.9550, V2^2 = 0.0450

  Important amplitudes:
     core i     occ j      vir a      vir b          v   
    ------------------------------------------------------
     5 (A) B              22 (A) B                -0.6655
     5 (A) A              22 (A) A                -0.6567
    ------------------------------------------------------
  ----------------------------------------------------------------------------


  Excited state  3 (A)                                             [converged]
  ----------------------------------------------------------------------------
  Term symbol:  4 (-) A                                     R^2 =  2.44448e-13

  Total energy:                                           -424.8289937418 a.u.
  Excitation energy:                                             301.199222 eV

  Osc. strength:                                                      0.000001
  Trans. dip. moment [a.u.]:           [   0.000328,   -0.000181,   -0.000137]
  <i|r^2|0> [a.u.]:                    [  -0.000540,   -0.001980,    0.000011]

  V1^2 = 0.8593, V2^2 = 0.1407

  Important amplitudes:
     core i     occ j      vir a      vir b          v   
    ------------------------------------------------------
     5 (A) B              21 (A) B                -0.9254
     5 (A) B   13 (A) A   22 (A) A   21 (A) B      0.0731
    ------------------------------------------------------
  ----------------------------------------------------------------------------


  Excited state  4 (A)                                             [converged]
  ----------------------------------------------------------------------------
  Term symbol:  5 (-) A                                     R^2 =  7.47732e-14

  Total energy:                                           -424.7372548578 a.u.
  Excitation energy:                                             303.695564 eV

  Osc. strength:                                                      0.000000
  Trans. dip. moment [a.u.]:           [  -0.000002,   -0.000088,    0.000085]
  <i|r^2|0> [a.u.]:                    [   0.000223,   -0.000513,    0.000167]

  V1^2 = 0.9326, V2^2 = 0.0674

  Important amplitudes:
     core i     occ j      vir a      vir b          v   
    ------------------------------------------------------
     5 (A) A              23 (A) A                 0.6284
     5 (A) B              23 (A) B                -0.6096
    ------------------------------------------------------
  ----------------------------------------------------------------------------


  Excited state  5 (A)                                             [converged]
  ----------------------------------------------------------------------------
  Term symbol:  6 (-) A                                     R^2 =  1.40166e-13

  Total energy:                                           -424.6671388051 a.u.
  Excitation energy:                                             305.603519 eV

  Osc. strength:                                                      0.009296
  Trans. dip. moment [a.u.]:           [  -0.010610,   -0.030911,    0.013175]
  <i|r^2|0> [a.u.]:                    [   0.039651,   -0.295027,    0.009791]

  V1^2 = 0.9218, V2^2 = 0.0782

  Important amplitudes:
     core i     occ j      vir a      vir b          v   
    ------------------------------------------------------
     5 (A) B              23 (A) B                 0.6564
     5 (A) A              23 (A) A                 0.6387
    ------------------------------------------------------
  ----------------------------------------------------------------------------


  Excited state  6 (A)                                             [converged]
  ----------------------------------------------------------------------------
  Term symbol:  7 (-) A                                     R^2 =  2.81669e-13

  Total energy:                                           -424.6645054744 a.u.
  Excitation energy:                                             305.675175 eV

  Osc. strength:                                                      0.000000
  Trans. dip. moment [a.u.]:           [   0.000167,   -0.000040,   -0.000082]
  <i|r^2|0> [a.u.]:                    [  -0.000382,   -0.000449,    0.000035]

  V1^2 = 0.9535, V2^2 = 0.0465

  Important amplitudes:
     core i     occ j      vir a      vir b          v   
    ------------------------------------------------------
     5 (A) A              27 (A) A                 0.4940
     5 (A) B              25 (A) B                -0.4848
    ------------------------------------------------------
  ----------------------------------------------------------------------------


  Excited state  7 (A)                                             [converged]
  ----------------------------------------------------------------------------
  Term symbol:  8 (-) A                                     R^2 =  3.34382e-13

  Total energy:                                           -424.6600175314 a.u.
  Excitation energy:                                             305.797299 eV

  Osc. strength:                                                      0.000000
  Trans. dip. moment [a.u.]:           [  -0.000025,    0.000043,   -0.000106]
  <i|r^2|0> [a.u.]:                    [   0.000019,    0.000390,    0.000027]

  V1^2 = 0.9533, V2^2 = 0.0467

  Important amplitudes:
     core i     occ j      vir a      vir b          v   
    ------------------------------------------------------
     5 (A) A              28 (A) A                 0.4921
     5 (A) B              28 (A) B                -0.4919
    ------------------------------------------------------
  ----------------------------------------------------------------------------


  Excited state  8 (A)                                             [converged]
  ----------------------------------------------------------------------------
  Term symbol:  9 (-) A                                     R^2 =  3.71630e-13

  Total energy:                                           -424.5840653421 a.u.
  Excitation energy:                                             307.864063 eV

  Osc. strength:                                                      0.120534
  Trans. dip. moment [a.u.]:           [  -0.105552,    0.055315,    0.042187]
  <i|r^2|0> [a.u.]:                    [   0.222927,    0.578174,   -0.030544]

  V1^2 = 0.9444, V2^2 = 0.0556

  Important amplitudes:
     core i     occ j      vir a      vir b          v   
    ------------------------------------------------------
     5 (A) B              25 (A) B                -0.5330
     5 (A) A              24 (A) A                -0.5230
    ------------------------------------------------------
  ----------------------------------------------------------------------------


  Excited state  9 (A)                                             [converged]
  ----------------------------------------------------------------------------
  Term symbol:  10 (-) A                                    R^2 =  1.44326e-13

  Total energy:                                           -424.5797807149 a.u.
  Excitation energy:                                             307.980653 eV

  Osc. strength:                                                      0.119950
  Trans. dip. moment [a.u.]:           [   0.054991,    0.019740,    0.111729]
  <i|r^2|0> [a.u.]:                    [  -0.116313,    0.204910,   -0.062598]

  V1^2 = 0.9442, V2^2 = 0.0558

  Important amplitudes:
     core i     occ j      vir a      vir b          v   
    ------------------------------------------------------
     5 (A) A              25 (A) A                 0.5244
     5 (A) B              24 (A) B                -0.5242
    ------------------------------------------------------
  ----------------------------------------------------------------------------


  Excited state 10 (A)                                             [converged]
  ----------------------------------------------------------------------------
  Term symbol:  11 (-) A                                    R^2 =  2.63726e-13

  Total energy:                                           -424.3786523076 a.u.
  Excitation energy:                                             313.453636 eV

  Osc. strength:                                                      0.000000
  Trans. dip. moment [a.u.]:           [  -0.000027,   -0.000083,    0.000032]
  <i|r^2|0> [a.u.]:                    [   0.000053,   -0.000872,   -0.000021]

  V1^2 = 0.9173, V2^2 = 0.0827

  Important amplitudes:
     core i     occ j      vir a      vir b          v   
    ------------------------------------------------------
     5 (A) B              26 (A) B                 0.6201
     5 (A) A              26 (A) A                -0.6174
    ------------------------------------------------------
  ----------------------------------------------------------------------------


  Excited state 11 (A)                                             [converged]
  ----------------------------------------------------------------------------
  Term symbol:  12 (-) A                                    R^2 =  1.45860e-13

  Total energy:                                           -424.3265032884 a.u.
  Excitation energy:                                             314.872683 eV

  Osc. strength:                                                      0.020545
  Trans. dip. moment [a.u.]:           [  -0.017417,   -0.045708,    0.016451]
  <i|r^2|0> [a.u.]:                    [   0.015728,   -0.498922,   -0.029865]

  V1^2 = 0.9179, V2^2 = 0.0821

  Important amplitudes:
     core i     occ j      vir a      vir b          v   
    ------------------------------------------------------
     5 (A) A              26 (A) A                 0.6521
     5 (A) B              26 (A) B                 0.6517
    ------------------------------------------------------
  ----------------------------------------------------------------------------


  Excited state 12 (A)                                             [converged]
  ----------------------------------------------------------------------------
  Term symbol:  13 (-) A                                    R^2 =  2.99787e-13

  Total energy:                                           -424.3136873870 a.u.
  Excitation energy:                                             315.221421 eV

  Osc. strength:                                                      0.001553
  Trans. dip. moment [a.u.]:           [   0.011749,   -0.006257,   -0.004883]
  <i|r^2|0> [a.u.]:                    [  -0.024632,   -0.065361,    0.003212]

  V1^2 = 0.8941, V2^2 = 0.1059

  Important amplitudes:
     core i     occ j      vir a      vir b          v   
    ------------------------------------------------------
     5 (A) A              27 (A) A                 0.5743
     5 (A) A              24 (A) A                -0.5559
    ------------------------------------------------------
  ----------------------------------------------------------------------------


  Excited state 13 (A)                                             [converged]
  ----------------------------------------------------------------------------
  Term symbol:  14 (-) A                                    R^2 =  2.22111e-13

  Total energy:                                           -424.3113239011 a.u.
  Excitation energy:                                             315.285735 eV

  Osc. strength:                                                      0.000018
  Trans. dip. moment [a.u.]:           [   0.000626,    0.000222,    0.001362]
  <i|r^2|0> [a.u.]:                    [  -0.001383,    0.002228,   -0.000848]

  V1^2 = 0.8943, V2^2 = 0.1057

  Important amplitudes:
     core i     occ j      vir a      vir b          v   
    ------------------------------------------------------
     5 (A) A              25 (A) A                -0.4835
     5 (A) A              28 (A) A                 0.4799
    ------------------------------------------------------
  ----------------------------------------------------------------------------


  Excited state 14 (A)                                             [converged]
  ----------------------------------------------------------------------------
  Term symbol:  15 (-) A                                    R^2 =  2.08864e-13

  Total energy:                                           -424.2980625128 a.u.
  Excitation energy:                                             315.646595 eV

  Osc. strength:                                                      0.026821
  Trans. dip. moment [a.u.]:           [  -0.049012,    0.025799,    0.020014]
  <i|r^2|0> [a.u.]:                    [   0.102807,    0.269230,   -0.013167]

  V1^2 = 0.8966, V2^2 = 0.1034

  Important amplitudes:
     core i     occ j      vir a      vir b          v   
    ------------------------------------------------------
     5 (A) B              27 (A) B                -0.6231
     5 (A) B              25 (A) B                 0.5019
    ------------------------------------------------------
  ----------------------------------------------------------------------------


  Excited state 15 (A)                                             [converged]
  ----------------------------------------------------------------------------
  Term symbol:  16 (-) A                                    R^2 =  7.58209e-13

  Total energy:                                           -424.2970236758 a.u.
  Excitation energy:                                             315.674864 eV

  Osc. strength:                                                      0.028890
  Trans. dip. moment [a.u.]:           [  -0.027239,   -0.009967,   -0.053798]
  <i|r^2|0> [a.u.]:                    [   0.057677,   -0.103049,    0.031162]

  V1^2 = 0.8977, V2^2 = 0.1023

  Important amplitudes:
     core i     occ j      vir a      vir b          v   
    ------------------------------------------------------
     5 (A) B              28 (A) B                -0.5319
     5 (A) A              28 (A) A                -0.5085
    ------------------------------------------------------
  ----------------------------------------------------------------------------


  Excited state 16 (A)                                             [converged]
  ----------------------------------------------------------------------------
  Term symbol:  17 (-) A                                    R^2 =  2.22715e-12

  Total energy:                                           -424.1949113709 a.u.
  Excitation energy:                                             318.453481 eV

  Osc. strength:                                                      0.000542
  Trans. dip. moment [a.u.]:           [   0.002677,    0.007345,   -0.002886]
  <i|r^2|0> [a.u.]:                    [  -0.007891,    0.074204,   -0.000668]

  V1^2 = 0.8946, V2^2 = 0.1054

  Important amplitudes:
     core i     occ j      vir a      vir b          v   
    ------------------------------------------------------
     5 (A) A              29 (A) A                 0.7384
     5 (A) B              29 (A) B                -0.4968
    ------------------------------------------------------
  ----------------------------------------------------------------------------


  Excited state 17 (A)                                             [converged]
  ----------------------------------------------------------------------------
  Term symbol:  18 (-) A                                    R^2 =  1.98028e-11

  Total energy:                                           -424.1719109544 a.u.
  Excitation energy:                                             319.079354 eV

  Osc. strength:                                                      0.014249
  Trans. dip. moment [a.u.]:           [   0.013892,    0.037689,   -0.014466]
  <i|r^2|0> [a.u.]:                    [  -0.039953,    0.381359,   -0.002789]

  V1^2 = 0.8953, V2^2 = 0.1047

  Important amplitudes:
     core i     occ j      vir a      vir b          v   
    ------------------------------------------------------
     5 (A) B              29 (A) B                 0.7568
     5 (A) A              29 (A) A                 0.5178
    ------------------------------------------------------
  ----------------------------------------------------------------------------


  Excited state 18 (A)                                         [not converged]
  ----------------------------------------------------------------------------
  Term symbol:  19 (-) A                                    R^2 =  1.26918e-06

  Total energy:                                           -423.7118495880 a.u.
  Excitation energy:                                             331.598260 eV


  V1^2 = 0.8787, V2^2 = 0.1213

  Important amplitudes:
     core i     occ j      vir a      vir b          v   
    ------------------------------------------------------
     5 (A) A              30 (A) A                 0.8423
     5 (A) B              30 (A) B                -0.2809
    ------------------------------------------------------
  ----------------------------------------------------------------------------


  Excited state 19 (A)                                             [converged]
  ----------------------------------------------------------------------------
  Term symbol:  20 (-) A                                    R^2 =  2.27839e-07

  Total energy:                                           -423.7048700438 a.u.
  Excitation energy:                                             331.788183 eV

  Osc. strength:                                                      0.000118
  Trans. dip. moment [a.u.]:           [  -0.003249,    0.001401,    0.001399]
  <i|r^2|0> [a.u.]:                    [   0.011382,    0.008477,    0.001240]

  V1^2 = 0.8774, V2^2 = 0.1226

  Important amplitudes:
     core i     occ j      vir a      vir b          v   
    ------------------------------------------------------
     5 (A) A              31 (A) A                -0.8961
     5 (A) A              36 (A) A                -0.1877
    ------------------------------------------------------
  ----------------------------------------------------------------------------


  Excited state 20 (A)                                         [not converged]
  ----------------------------------------------------------------------------
  Term symbol:  21 (-) A                                    R^2 =  1.47356e-06

  Total energy:                                           -423.7035637056 a.u.
  Excitation energy:                                             331.823731 eV


  V1^2 = 0.8781, V2^2 = 0.1219

  Important amplitudes:
     core i     occ j      vir a      vir b          v   
    ------------------------------------------------------
     5 (A) B              30 (A) B                 0.8539
     5 (A) A              30 (A) A                 0.2825
    ------------------------------------------------------
  ----------------------------------------------------------------------------


--------------------------------------------------------------------------------
  Time of ADC calculation:  CPU 1540.66 s  wall 1584.26 s
================================================================================
 
 --------------------------------------------------------------
 
                    Orbital Energies (a.u.)
 --------------------------------------------------------------
 
 Alpha MOs
 -- Occupied --
-26.733 -26.733 -26.733 -26.689 -11.947  -2.165  -2.057  -2.056
 -1.949  -1.318  -1.234  -1.234  -1.198  -1.120  -1.065  -1.062
 -1.054  -1.032  -1.013  -0.988  -0.986
 -- Virtual --
 -0.184   0.077   0.212   0.217   0.384   0.419   0.425   0.493
  0.939   0.966   0.997   1.017   1.018   1.048   1.231   1.233
  1.241   1.290   1.293   1.313   1.333   1.358   1.438   1.606
  1.619   1.634   1.727   1.728   1.780   1.787   1.793   1.941
  1.943   1.957   1.962   2.007   2.019   2.039   2.052   2.209
  2.308   2.702   2.705   2.744   3.006   3.011   3.244   3.247
  3.300   3.816   4.359   4.905   4.915   6.860
 
 Beta MOs
 -- Occupied --
-26.733 -26.733 -26.733 -26.640 -11.947  -2.164  -2.057  -2.056
 -1.759  -1.318  -1.234  -1.234  -1.192  -1.064  -1.063  -1.049
 -1.043  -1.013  -0.940  -0.937
 -- Virtual --
 -0.189  -0.183   0.081   0.217   0.219   0.385   0.424   0.425
  0.500   0.950   1.006   1.015   1.019   1.055   1.067   1.239
  1.243   1.252   1.292   1.293   1.313   1.371   1.438   1.439
  1.624   1.633   1.660   1.739   1.740   1.786   1.838   1.842
  1.945   1.948   1.975   1.977   2.011   2.047   2.052   2.079
  2.220   2.313   2.703   2.705   2.755   3.006   3.011   3.244
  3.247   3.301   3.849   4.360   4.906   4.916   6.861
 --------------------------------------------------------------
 
          Ground-State Mulliken Net Atomic Charges

     Atom                 Charge (a.u.)    Spin (a.u.)
  --------------------------------------------------------
      1 C                     1.319140      -0.007434
      2 F                    -0.124826       0.001716
      3 F                    -0.124076       0.001446
      4 F                     0.044929       1.006052
      5 F                    -0.115167      -0.001780
  --------------------------------------------------------
  Sum of atomic charges =     1.000000
  Sum of spin   charges =     1.000000

 -----------------------------------------------------------------
                    Cartesian Multipole Moments
 -----------------------------------------------------------------
    Charge (ESU x 10^10)
                 4.8032
    Dipole Moment (Debye)
         X      -2.8313      Y      12.7352      Z      -0.5656
       Tot      13.0584
    Quadrupole Moments (Debye-Ang)
        XX     -18.8053     XY      -7.1380     YY      14.3811
        XZ      -0.1245     YZ      -2.0154     ZZ     -20.8529
    Octopole Moments (Debye-Ang^2)
       XXX      41.4829    XXY     -45.0985    XYY      -4.0667
       YYY     -48.5513    XXZ       1.1204    XYZ       0.0612
       YYZ      -6.3272    XZZ      13.5900    YZZ     -49.0933
       ZZZ       0.1246
    Hexadecapole Moments (Debye-Ang^3)
      XXXX    -126.5507   XXXY      97.2404   XXYY    -143.3831
      XYYY      50.9369   YYYY    -498.3351   XXXZ      -1.2870
      XXYZ       3.0647   XYYZ       0.6855   YYYZ     -16.0043
      XXZZ     -31.7582   XYZZ      31.2562   YYZZ    -141.2351
      XZZZ       1.0796   YZZZ       4.0279   ZZZZ     -70.3622
 -----------------------------------------------------------------
Archival summary:
1\1\tp-linux1\SP\HF\6-31G*\41(1+,2)\thomas\WedMar2215:49:122017WedMar2215:49:122017\0\\#,HF,6-31G*,\\1,2\C\F,1,1.21684\F,1,1.22061,2,119.763\F,1,1.22097,2,119.733,3,-168.277,0\F,1,1.9629,2,87.6368,3,-84.1824,0\\HF=-435.154205\\@

 Total job time:  1601.71s(wall), 1550.59s(cpu) 
 Wed Mar 22 15:49:12 2017

        *************************************************************
        *                                                           *
        *  Thank you very much for using Q-Chem.  Have a nice day.  *
        *                                                           *
        *************************************************************


0 sent ACK to 0 
now end server 0 ... 
cleanup process ... done
