
Running Job 1 of 1 ddtraj1t0.inp
qchem ddtraj1t0.inp_17431.0 /scratch/qchem/qchem17431/ 1
/mnt/software/qchem/bin/mpi/mpirun_qchem -machinefile /mnt/software/qchem/bin/mpi/machines -np 1 /mnt/software/qchem/exe/qcprog.exe ddtraj1t0.inp_17431.0 /scratch/qchem/qchem17431/

Process 0 of 1 is on tp-linux1 - thread support 0
initial socket setup ...start
initial socket setup ...done 
now start server 0 ... 

cmd = ssh tp-linux1 /mnt/software/qchem/bin/get_hostid 1530834029 > /scratch/qchem/qchem17431/lic.dat
                  Welcome to Q-Chem
     A Quantum Leap Into The Future Of Chemistry


 Q-Chem 4.3, Q-Chem, Inc., Pleasanton, CA (2015)

 Y. Shao,  Z. Gan,  E. Epifanovsky,  A. T. B. Gilbert,  M. Wormit,  
 J. Kussmann,  A. W. Lange,  A. Behn,  J. Deng,  X. Feng,  D. Ghosh,  
 M. Goldey,  P. R. Horn,  L. D. Jacobson,  I. Kaliman,  R. Z. Khaliullin,  
 T. Kus,  A. Landau,  J. Liu,  E. I. Proynov,  Y. M. Rhee,  R. M. Richard,  
 M. A. Rohrdanz,  R. P. Steele,  E. J. Sundstrom,  H. L. Woodcock III,  
 P. M. Zimmerman,  D. Zuev,  B. Albrecht,  E. Alguire,  B. Austin,  
 S. A. Baeppler,  G. J. O. Beran,  Y. A. Bernard,  E. Berquist,  
 K. Brandhorst,  K. B. Bravaya,  S. T. Brown,  D. Casanova,  C.-M. Chang,  
 Y. Chen,  S. H. Chien,  K. D. Closser,  D. L. Crittenden,  M. Diedenhofen,  
 R. A. DiStasio Jr.,  H. Do,  A. D. Dutoi,  R. G. Edgar,  P.-T. Fang,  
 S. Fatehi,  Q. Feng,  L. Fusti-Molnar,  A. Ghysels,  
 A. Golubeva-Zadorozhnaya,  J. Gomes,  A. Gunina,  M. W. D. Hanson-Heine,  
 P. H. P. Harbach,  A. W. Hauser,  E. G. Hohenstein,  Z. C. Holden,  K. Hui,  
 T.-C. Jagau,  H. Ji,  B. Kaduk,  K. Khistyaev,  Jaehoon Kim,  Jihan Kim,  
 R. A. King,  P. Klunzinger,  D. Kosenkov,  T. Kowalczyk,  C. M. Krauter,  
 K. U. Lao,  A. Laurent,  K. V. Lawler,  S. Lehtola,  S. V. Levchenko,  
 C. Y. Lin,  Y.-S. Lin,  F. Liu,  E. Livshits,  R. C. Lochan,  A. Luenser,  
 P. Manohar,  S. F. Manzer,  S.-P. Mao,  N. Mardirossian,  A. V. Marenich,  
 L. A. Martinez-Martinez,  S. A. Maurer,  N. J. Mayhall,  K. Nanda,  
 C. M. Oana,  R. Olivares-Amaya,  D. P. O'Neill,  J. A. Parkhill,  
 T. M. Perrine,  R. Peverati,  P. A. Pieniazek,  F. Plasser,  A. Prociuk,  
 D. R. Rehn,  E. Rosta,  N. J. Russ,  N. Sergueev,  S. M. Sharada,  
 S. Sharma,  D. W. Small,  A. Sodt,  T. Stauch,  T. Stein,  D. Stuck,  
 Y.-C. Su,  A. J. W. Thom,  T. Tsuchimochi,  L. Vogt,  O. Vydrov,  T. Wang,  
 M. A. Watson,  J. Wenzel,  A. White,  C. F. Williams,  V. Vanovschi,  
 S. Yeganeh,  S. R. Yost,  Z.-Q. You,  I. Y. Zhang,  X. Zhang,  Y. Zhao,  
 B. R. Brooks,  G. K. L. Chan,  D. M. Chipman,  C. J. Cramer,  
 W. A. Goddard III,  M. S. Gordon,  W. J. Hehre,  A. Klamt,  
 H. F. Schaefer III,  M. W. Schmidt,  C. D. Sherrill,  D. G. Truhlar,  
 A. Warshel,  X. Xu,  A. Aspuru-Guzik,  R. Baer,  A. T. Bell,  N. A. Besley,  
 J.-D. Chai,  A. Dreuw,  B. D. Dunietz,  T. R. Furlani,  S. R. Gwaltney,  
 C.-P. Hsu,  Y. Jung,  J. Kong,  D. S. Lambrecht,  W. Liang,  C. Ochsenfeld,  
 V. A. Rassolov,  L. V. Slipchenko,  J. E. Subotnik,  T. Van Voorhis,  
 J. M. Herbert,  A. I. Krylov,  P. M. W. Gill,  M. Head-Gordon

 Contributors to earlier versions of Q-Chem not listed above: 
 R. D. Adamson,  J. Baker,  E. F. C. Byrd,  A. K. Chakraborty,  C.-L. Cheng,  
 H. Dachsel,  R. J. Doerksen,  G. Hawkins,  A. Heyden,  S. Hirata,  
 G. Kedziora,  F. J. Keil,  C. Kelley,  P. P. Korambath,  W. Kurlancheek,  
 A. M. Lee,  M. S. Lee,  D. Liotard,  I. Lotan,  P. E. Maslen,  N. Nair,  
 D. Neuhauser,  R. Olson,  B. Peters,  J. Ritchie,  N. E. Schultz,  
 N. Shenvi,  A. C. Simmonett,  K. S. Thanthiriwatte,  Q. Wu,  W. Zhang

 Please cite Q-Chem as follows:
 Y. Shao et al., Mol. Phys. 113, 184-215 (2015)
 DOI: 10.1080/00268976.2014.952696

 Q-Chem 4.3.0 for Intel X86 Linux

 Parts of Q-Chem use Armadillo 5.200.1 (Boston Tea Smuggler).
 http://arma.sourceforge.net/

 Q-Chem begins on Wed Mar 22 10:45:48 2017  

Host: 
0

     Scratch files written to /scratch/qchem/qchem17431//
 Nov1815 1189b_ 19540  19532 5443   
 Parallel job on  1  processors
Processing $rem in /mnt/software/qchem/config/preferences.
 MEM_TOTAL  2000 

Checking the input file for inconsistencies... 	...done.

--------------------------------------------------------------
User input:
--------------------------------------------------------------
$comment
XAS calculation for valence excited states for CF4+ using cvs-adc(2) + 6-31G* basis set
job 1 - determination of HF orbitals
$end

$molecule
1 2
6  -0.69934  2.34967  0.0
9  0.60215  2.34967  -0.0
9  -1.13316  3.29245  0.78541
9  -1.13317  1.1981  0.42375
9  -1.13317  2.55847  -1.20916
$end

$comment
cvs-adc(2) calculation
$end

$rem
mem_total 3000
mem_static 1500
sym_ignore true
method cvs-adc(2)
basis 6-31G*
ee_singlets 20
cc_rest_occ 5                  !only excitations from the lowest N orbitals
unrestricted  true
max_scf_cycles 200
SCF_ALGORITHM = DIIS_GDM
SCF_CONVERGENCE = 7
THRESH = 10
$end
--------------------------------------------------------------
 ----------------------------------------------------------------
             Standard Nuclear Orientation (Angstroms)
    I     Atom           X                Y                Z
 ----------------------------------------------------------------
    1      C      -0.6993400000     2.3496700000     0.0000000000
    2      F       0.6021500000     2.3496700000     0.0000000000
    3      F      -1.1331600000     3.2924500000     0.7854100000
    4      F      -1.1331700000     1.1981000000     0.4237500000
    5      F      -1.1331700000     2.5584700000    -1.2091600000
 ----------------------------------------------------------------
 Nuclear Repulsion Energy =   208.8311212848 hartrees
 There are       21 alpha and       20 beta electrons
 Requested basis set is 6-31G(d)
 There are 20 shells and 75 basis functions

 Total QAlloc Memory Limit   3000 MB
 Mega-Array Size      1467 MB
 MEM_STATIC part      1500 MB

                       Distance Matrix (Angstroms)
             C (  1)   F (  2)   F (  3)   F (  4)
   F (  2)  1.301490
   F (  3)  1.301500  2.125324
   F (  4)  1.301494  2.125327  2.125347
   F (  5)  1.301489  2.125324  2.125332  2.125324
 
 tim1(1): 
  0.000000000000000E+000
 tim1(2): 
  0.000000000000000E+000
 A cutoff of  1.0D-10 yielded    204 shell pairs
 There are      2979 function pairs
 
 -------------------------------------------------------
 OpenMP Integral Computing Module                       
 Release: version 1.0, May 2013, Q-Chem Inc. Pittsburgh 
 -------------------------------------------------------
 Integral Job Info:
 Integral job number is                      11
 Integral operator is                         1
 short-range coefficients                     0
 long-range coefficients              100000000
 Omega coefficients                           0
 if combine SR and LR in K                    0
 Integral screening is                        0
 Integral computing path is                   2
 max size of driver memory is            800000
 size of driver memory is                593474
 size of scratch memory is              2260544
 max col of scratch BK array               1296
 max len of scratch array in speh3          155
 max len of scratch index in speh4           18
 max int batch size is                      520
 min int batch size is                       52
 fixed nKL is                                52
 max L of basis functions is                  2
 order of int derivative is                   0
 number of shells is                         20
 number of basis is                          75
 number of cartesian basis is                75
 number of contracted shell pairs           204
 number of primitive shell pairs           1070
 maxK2 (contraction) of shell pair           36
 max number of K2 of shell pair               1
 max number of CS2 of shell pair             37
 max number of PS2 of shell pair            222
 mem total for path MDJ                   21832
 -------------------------------------------------------
 Smallest overlap matrix eigenvalue = 1.75E-03

 Scale SEOQF with 1.000000e+00/1.000000e-01/1.000000e+00

 Standard Electronic Orientation quadrupole field applied
 Nucleus-field energy     =     0.0000000108 hartrees
 Guess from superposition of atomic densities
 Warning:  Energy on first SCF cycle will be non-variational
 An unrestricted Hartree-Fock SCF calculation will be
 performed using Pulay DIIS + Geometric Direct Minimization
 SCF converges when RMS gradient is below 1.0E-07
 ---------------------------------------
  Cycle       Energy         DIIS Error
 ---------------------------------------
    1    -436.6440699956      8.95E-02
    2    -434.8131118581      1.82E-02
    3    -434.9800953162      8.16E-03 Done DIIS. Switching to GDM
    4    -435.0150647219      3.11E-02 Normal BFGS step
    5    -435.0207520657      6.39E-02 Normal BFGS step
    6    -435.0342755217      7.53E-02 Dog-leg BFGS step
    7    -435.0494507595      4.59E-02 Normal BFGS step
    8    -435.0527616648      3.06E-02 Normal BFGS step
    9    -435.0630109791      2.13E-02 Normal BFGS step
   10    -435.0661062424      1.26E-02 Normal BFGS step
   11    -435.0669700425      6.07E-03 Normal BFGS step
   12    -435.0673573512      6.01E-03 Normal BFGS step
   13    -435.0675457173      5.33E-03 Normal BFGS step
   14    -435.0676562190      3.79E-03 Normal BFGS step
   15    -435.0677287040      2.28E-03 Normal BFGS step
   16    -435.0677617476      9.62E-04 Normal BFGS step
   17    -435.0677734375      3.88E-04 Normal BFGS step
   18    -435.0677759547      1.85E-04 Normal BFGS step
   19    -435.0677764799      6.40E-05 Normal BFGS step
   20    -435.0677765889      6.12E-05 Normal BFGS step
   21    -435.0677766147      5.76E-05 Normal BFGS step
   22    -435.0677766256      5.57E-05 Normal BFGS step
   23    -435.0677766385      5.22E-05 Normal BFGS step
   24    -435.0677766665      4.76E-05 Normal BFGS step
   25    -435.0677767305      5.14E-05 Normal BFGS step
   26    -435.0677768891      8.67E-05 Normal BFGS step
   27    -435.0677772885      1.47E-04 Normal BFGS step
   28    -435.0677782999      2.46E-04 Normal BFGS step
   29    -435.0677803690      4.09E-04 Normal BFGS step
   30    -435.0677828363      4.55E-04 Normal BFGS step
   31    -435.0677883015      4.07E-04 Normal BFGS step
   32    -435.0677903785      2.38E-04 Normal BFGS step
   33    -435.0677914808      1.61E-04 Normal BFGS step
   34    -435.0677917638      1.11E-04 Normal BFGS step
   35    -435.0677921519      7.43E-05 Normal BFGS step
   36    -435.0677922506      4.83E-05 Normal BFGS step
   37    -435.0677923053      4.32E-05 Normal BFGS step
   38    -435.0677923178      3.23E-05 Normal BFGS step
   39    -435.0677923232      2.23E-05 Normal BFGS step
   40    -435.0677923260      1.28E-05 Normal BFGS step
   41    -435.0677923274      6.58E-06 Normal BFGS step
   42    -435.0677923280      3.53E-06 Normal BFGS step
   43    -435.0677923282      1.94E-06 Normal BFGS step
   44    -435.0677923282      9.00E-07 Normal BFGS step
   45    -435.0677923282      3.00E-07 Normal BFGS step
   46    -435.0677923282      1.07E-07 Normal BFGS step
   47    -435.0677923282      7.27E-08 Convergence criterion met
 ---------------------------------------
 <S^2> = 0.7567
 SCF time:  CPU 7.67 s  wall 13.57 s
 SCF   energy in the final basis set = -435.0677923282
 Total energy in the final basis set = -435.0677923282
================================================================================
|                                                                              |
|                                 A D C  M A N                                 |
|                                                                              |
 ------------------------------------------------------------------------------ 
|                                                                              |
| Components:                                                                  |
|                                                                              |
| - libvmm - 1.2-release                                                       |
|   Authors:                                                                   |
|   Evgeny Epifanovsky, Ilya Kaliman                                           |
|                                                                              |
| - libtensor - 2.4-trunk                                                      |
|   Authors:                                                                   |
|   Evgeny Epifanovsky, Michael Wormit, Dmitry Zuev, Sam Manzer                |
|                                                                              |
| - libwfa - 1.1-beta                                                          |
|   Authors:                                                                   |
|   Felix Plasser, Stefanie Baeppler, Benjamin Thomitzni, Michael Wormit       |
|                                                                              |
| - libadc - 1.0-beta                                                          |
|   Authors:                                                                   |
|   Michael Wormit, Philipp H. P. Harbach, Caroline Krauter, Dirk Rehn,        |
|   Matthias Schneider, Jan Wenzel                                             |
|                                                                              |
| - adcman - 2.4-beta                                                          |
|   Authors:                                                                   |
|   Michael Wormit, Philipp H. P. Harbach, Caroline Krauter, Dirk Rehn,        |
|   Jan Wenzel, Andreas Dreuw                                                  |
|                                                                              |
| Authors of earlier versions of ADCMAN:                                       |
| Andreas Dreuw, Jan Hendrik Starcke, Dirk Rehn, Michael Wormit                |
|                                                                              |
================================================================================

 
 Alpha MOs, Unrestricted
 -- Occupied --                  
-27.007 -26.681 -26.658 -26.658 -11.930  -2.320  -2.057  -1.970
  1 A     2 A     3 A     4 A     5 A     6 A     7 A     8 A                  
 -1.956  -1.443  -1.417  -1.318  -1.228  -1.140  -1.127  -1.036
  9 A    10 A    11 A    12 A    13 A    14 A    15 A    16 A                  
 -1.009  -1.007  -0.968  -0.963  -0.946
 17 A    18 A    19 A    20 A    21 A                                          
 -- Virtual --                   
  0.049   0.110   0.121   0.179   0.320   0.377   0.385   0.431
 22 A    23 A    24 A    25 A    26 A    27 A    28 A    29 A                  
  0.905   0.921   0.949   1.044   1.051   1.135   1.161   1.196
 30 A    31 A    32 A    33 A    34 A    35 A    36 A    37 A                  
  1.305   1.314   1.355   1.358   1.390   1.391   1.444   1.444
 38 A    39 A    40 A    41 A    42 A    43 A    44 A    45 A                  
  1.514   1.712   1.713   1.823   1.837   1.844   1.878   1.925
 46 A    47 A    48 A    49 A    50 A    51 A    52 A    53 A                  
  1.928   1.935   1.952   1.970   2.075   2.082   2.124   2.286
 54 A    55 A    56 A    57 A    58 A    59 A    60 A    61 A                  
  2.590   2.610   2.619   2.840   2.846   3.008   3.117   3.129
 62 A    63 A    64 A    65 A    66 A    67 A    68 A    69 A                  
  3.134   4.325   4.408   4.465   4.473   6.006
 70 A    71 A    72 A    73 A    74 A    75 A                                  
 
 Beta MOs, Unrestricted
 -- Occupied --                  
-26.955 -26.677 -26.658 -26.657 -11.932  -2.171  -2.026  -1.960
  1 A     2 A     3 A     4 A     5 A     6 A     7 A     8 A                  
 -1.954  -1.398  -1.273  -1.221  -1.151  -1.119  -1.012  -1.001
  9 A    10 A    11 A    12 A    13 A    14 A    15 A    16 A                  
 -0.998  -0.967  -0.960  -0.944
 17 A    18 A    19 A    20 A                                                  
 -- Virtual --                   
 -0.470   0.072   0.122   0.147   0.180   0.328   0.383   0.384
 21 A    22 A    23 A    24 A    25 A    26 A    27 A    28 A                  
  0.432   0.925   0.960   1.002   1.053   1.053   1.140   1.204
 29 A    30 A    31 A    32 A    33 A    34 A    35 A    36 A                  
  1.242   1.317   1.327   1.360   1.366   1.392   1.394   1.486
 37 A    38 A    39 A    40 A    41 A    42 A    43 A    44 A                  
  1.488   1.520   1.741   1.746   1.825   1.841   1.846   1.892
 45 A    46 A    47 A    48 A    49 A    50 A    51 A    52 A                  
  1.936   1.937   1.962   1.974   1.979   2.083   2.084   2.125
 53 A    54 A    55 A    56 A    57 A    58 A    59 A    60 A                  
  2.292   2.607   2.622   2.622   2.846   2.846   3.025   3.119
 61 A    62 A    63 A    64 A    65 A    66 A    67 A    68 A                  
  3.131   3.134   4.344   4.408   4.468   4.474   6.010
 69 A    70 A    71 A    72 A    73 A    74 A    75 A                          
 

--------------------------------------------------------------------------------
                                   HF Summary                                   
--------------------------------------------------------------------------------
  Energy:                                                 -435.0677923282 a.u.
  Dip. moment [a.u.]:                  [ -53.681043,  183.315317,   -0.408009]
  Total dipole [Debye]:                                             485.509107
  <r^2> [a.u.]:                        [ 159.057788,  905.814930,   88.358947]
  Total <r^2> [a.u.]:                                              1153.231666
--------------------------------------------------------------------------------

--------------------------------------------------------------------------------
                                 MP(2) Summary                                  
--------------------------------------------------------------------------------
  Energy contribution:                                      -0.7585003381 a.u.
  Total energy:                                           -435.8262926664 a.u.
  Dip. moment [a.u.]:                  [ -53.734963,  183.127093,   -0.301040]
  Total dipole [Debye]:                                             485.088054
  <r^2> [a.u.]:                        [ 159.027102,  904.248036,   88.105333]
  Total <r^2> [a.u.]:                                              1151.380471
--------------------------------------------------------------------------------
  Starting Davidson ... 
--------------------------------------------------------------------------------
   It NVec Conv  Avg. Norm  Max. Norm  Conv. states           Remark
--------------------------------------------------------------------------------
        20    0  2.126e-01  1.133e+00 11.0979 n n n n n n n n Guess.
    1   40    0  3.366e-02  3.384e-01 10.6880 n n n n n n n n 
    2   60    0  7.528e-03  7.252e-02 10.6838 n n n n n n n n 
    3   80    0  2.219e-03  2.365e-02 10.6834 n n n n n n n n 
    4  100    0  9.362e-04  1.183e-02 10.6834 n n n n n n n n 
    5   40    0  9.326e-04  1.229e-02 10.6834 n n n n n n n n Subspace collapsed.
    6   60    0  5.413e-04  8.366e-03 10.6834 n n n n n n n n 
    7   80    0  5.086e-04  8.973e-03 10.6834 n n n n n n n n 
    8  100    1  3.213e-04  6.022e-03 10.6834 n n n y n n n n 
    9   40    7  1.777e-04  3.356e-03 10.6834 y y y y n y y y Subspace collapsed.
   10   60    8  1.069e-04  2.015e-03 10.6834 y y y y y y y y 
   11   80    9  6.896e-05  1.318e-03 10.6834 y y y y y y y y 
   12  100   15  5.180e-05  1.016e-03 10.6834 y y y y y y y y 
   13   40   17  4.950e-05  9.711e-04 10.6834 y y y y y y y y Subspace collapsed.
   14   60   17  3.782e-05  7.479e-04 10.6834 y y y y y y y y 
   15   80   17  4.227e-05  8.428e-04 10.6834 y y y y y y y y 
   16  100   17  3.059e-05  6.100e-04 10.6834 y y y y y y y y 
   17   40   17  1.801e-05  3.594e-04 10.6834 y y y y y y y y Subspace collapsed.
   18   40   17  1.801e-05  3.594e-04 10.6834 y y y y y y y y 
   19   60   17  1.028e-05  2.050e-04 10.6834 y y y y y y y y 
   20   61   17  1.049e-05  2.093e-04 10.6834 y y y y y y y y 
   21   61   17  1.049e-05  2.093e-04 10.6834 y y y y y y y y 
   22   81   17  8.160e-06  1.630e-04 10.6834 y y y y y y y y 
   23   81   17  8.160e-06  1.630e-04 10.6834 y y y y y y y y 
   24   82   17  8.140e-06  1.626e-04 10.6834 y y y y y y y y 
   25   96   17  7.114e-06  1.422e-04 10.6834 y y y y y y y y 
   26   97   17  7.097e-06  1.419e-04 10.6834 y y y y y y y y 
   27   98   17  7.131e-06  1.425e-04 10.6834 y y y y y y y y 
   28   99   17  7.136e-06  1.426e-04 10.6834 y y y y y y y y 
   29  100   17  7.105e-06  1.420e-04 10.6834 y y y y y y y y 
   30   23   17  7.091e-06  1.417e-04 10.6834 y y y y y y y y Subspace collapsed.
   31   26   17  7.026e-06  1.404e-04 10.6834 y y y y y y y y 
   32   29   17  7.033e-06  1.406e-04 10.6834 y y y y y y y y 
   33   32   17  7.034e-06  1.406e-04 10.6834 y y y y y y y y 
   34   34   17  7.056e-06  1.410e-04 10.6834 y y y y y y y y 
   35   35   17  7.047e-06  1.408e-04 10.6834 y y y y y y y y 
   36   37   17  7.073e-06  1.414e-04 10.6834 y y y y y y y y 
   37   38   17  7.140e-06  1.427e-04 10.6834 y y y y y y y y 
   38   38   17  7.140e-06  1.427e-04 10.6834 y y y y y y y y 
   39   42   17  7.244e-06  1.448e-04 10.6834 y y y y y y y y 
   40   54   17  6.032e-06  1.206e-04 10.6834 y y y y y y y y 
   41   66   17  4.491e-06  8.979e-05 10.6834 y y y y y y y y 
   42   77   17  4.509e-06  9.016e-05 10.6834 y y y y y y y y 
   43   88   18  3.363e-06  6.723e-05 10.6834 y y y y y y y y 
   44   99   18  2.292e-06  4.574e-05 10.6834 y y y y y y y y 
   45  100   18  2.284e-06  4.559e-05 10.6834 y y y y y y y y 
   46   24   18  2.227e-06  4.445e-05 10.6834 y y y y y y y y Subspace collapsed.
   47   25   18  2.227e-06  4.446e-05 10.6834 y y y y y y y y 
   48   26   18  2.222e-06  4.434e-05 10.6834 y y y y y y y y 
   49   27   18  2.223e-06  4.437e-05 10.6834 y y y y y y y y 
   50   27   18  2.223e-06  4.437e-05 10.6834 y y y y y y y y 
   51   29   18  2.216e-06  4.423e-05 10.6834 y y y y y y y y 
   52   29   18  2.216e-06  4.423e-05 10.6834 y y y y y y y y 
   53   30   18  2.209e-06  4.409e-05 10.6834 y y y y y y y y 
   54   30   18  2.209e-06  4.409e-05 10.6834 y y y y y y y y 
   55   30   18  2.209e-06  4.409e-05 10.6834 y y y y y y y y 
   56   50   18  9.875e-07  1.968e-05 10.6834 y y y y y y y y 
   57   51   18  9.859e-07  1.965e-05 10.6834 y y y y y y y y 
   58   51   18  9.859e-07  1.965e-05 10.6834 y y y y y y y y 
   59   51   18  9.859e-07  1.965e-05 10.6834 y y y y y y y y 
--------------------------------------------------------------------------------
  Davidson Summary: 
 ------------------------------------------------------------
  State  0: excitation energy =  10.6834 a.u.   (converged)
  State  1: excitation energy =  11.0038 a.u.   (converged)
  State  2: excitation energy =  11.0982 a.u.   (converged)
  State  3: excitation energy =  11.1011 a.u.   (converged)
  State  4: excitation energy =  11.1012 a.u.   (converged)
  State  5: excitation energy =  11.1745 a.u.   (converged)
  State  6: excitation energy =  11.1751 a.u.   (converged)
  State  7: excitation energy =  11.1922 a.u.   (converged)
  State  8: excitation energy =  11.2856 a.u.   (converged)
  State  9: excitation energy =  11.5135 a.u.   (converged)
  State 10: excitation energy =  11.5350 a.u.   (converged)
  State 11: excitation energy =  11.5506 a.u.   (converged)
  State 12: excitation energy =  11.5600 a.u.   (converged)
  State 13: excitation energy =  11.5736 a.u.   (converged)
  State 14: excitation energy =  11.5768 a.u.   (converged)
  State 15: excitation energy =  11.6031 a.u.   (converged)
  State 16: excitation energy =  11.6213 a.u.   (converged)
  State 17: excitation energy =  12.0953 a.u.   (not converged)
  State 18: excitation energy =  12.1166 a.u.   (converged)
  State 19: excitation energy =  12.1271 a.u.   (not converged)
 ------------------------------------------------------------


--------------------------------------------------------------------------------
                             Excited State Summary
--------------------------------------------------------------------------------

  Excited state  1 (A)                                             [converged]
  ----------------------------------------------------------------------------
  Term symbol:  2 (-) A                                     R^2 =  6.45517e-14

  Total energy:                                           -425.1428895145 a.u.
  Excitation energy:                                             290.710185 eV

  Osc. strength:                                                      0.000009
  Trans. dip. moment [a.u.]:           [   0.000245,   -0.000386,    0.001003]
  <i|r^2|0> [a.u.]:                    [   0.000573,   -0.002583,   -0.002160]

  V1^2 = 0.8708, V2^2 = 0.1292

  Important amplitudes:
     core i     occ j      vir a      vir b          v   
    ------------------------------------------------------
     5 (A) B              21 (A) B                 0.9304
     5 (A) B   10 (A) A   22 (A) A   21 (A) B      0.0686
    ------------------------------------------------------
  ----------------------------------------------------------------------------


  Excited state  2 (A)                                             [converged]
  ----------------------------------------------------------------------------
  Term symbol:  3 (-) A                                     R^2 =  1.03573e-13

  Total energy:                                           -424.8225048239 a.u.
  Excitation energy:                                             299.428295 eV

  Osc. strength:                                                      0.002172
  Trans. dip. moment [a.u.]:           [  -0.006096,   -0.015321,    0.004921]
  <i|r^2|0> [a.u.]:                    [   0.018241,   -0.134363,    0.002072]

  V1^2 = 0.9583, V2^2 = 0.0417

  Important amplitudes:
     core i     occ j      vir a      vir b          v   
    ------------------------------------------------------
     5 (A) A              22 (A) A                -0.6822
     5 (A) B              22 (A) B                -0.5112
    ------------------------------------------------------
  ----------------------------------------------------------------------------


  Excited state  3 (A)                                             [converged]
  ----------------------------------------------------------------------------
  Term symbol:  4 (-) A                                     R^2 =  1.54061e-13

  Total energy:                                           -424.7281357102 a.u.
  Excitation energy:                                             301.996210 eV

  Osc. strength:                                                      0.016165
  Trans. dip. moment [a.u.]:           [  -0.022189,   -0.041138,    0.000386]
  <i|r^2|0> [a.u.]:                    [   0.063896,   -0.362126,    0.003772]

  V1^2 = 0.9517, V2^2 = 0.0483

  Important amplitudes:
     core i     occ j      vir a      vir b          v   
    ------------------------------------------------------
     5 (A) A              23 (A) A                -0.6354
     5 (A) B              24 (A) B                -0.4868
    ------------------------------------------------------
  ----------------------------------------------------------------------------


  Excited state  4 (A)                                             [converged]
  ----------------------------------------------------------------------------
  Term symbol:  5 (-) A                                     R^2 =  5.47989e-14

  Total energy:                                           -424.7251840119 a.u.
  Excitation energy:                                             302.076529 eV

  Osc. strength:                                                      0.000052
  Trans. dip. moment [a.u.]:           [   0.001814,   -0.001844,   -0.000600]
  <i|r^2|0> [a.u.]:                    [  -0.004835,   -0.016249,    0.000122]

  V1^2 = 0.9527, V2^2 = 0.0473

  Important amplitudes:
     core i     occ j      vir a      vir b          v   
    ------------------------------------------------------
     5 (A) A              24 (A) A                -0.6199
     5 (A) B              23 (A) B                 0.5965
    ------------------------------------------------------
  ----------------------------------------------------------------------------


  Excited state  5 (A)                                             [converged]
  ----------------------------------------------------------------------------
  Term symbol:  6 (-) A                                     R^2 =  1.04061e-13

  Total energy:                                           -424.7250444264 a.u.
  Excitation energy:                                             302.080328 eV

  Osc. strength:                                                      0.104414
  Trans. dip. moment [a.u.]:           [   0.036057,    0.103834,   -0.045021]
  <i|r^2|0> [a.u.]:                    [  -0.106524,    0.915585,   -0.011927]

  V1^2 = 0.9523, V2^2 = 0.0477

  Important amplitudes:
     core i     occ j      vir a      vir b          v   
    ------------------------------------------------------
     5 (A) B              22 (A) B                -0.6331
     5 (A) A              22 (A) A                 0.4850
    ------------------------------------------------------
  ----------------------------------------------------------------------------


  Excited state  6 (A)                                             [converged]
  ----------------------------------------------------------------------------
  Term symbol:  7 (-) A                                     R^2 =  1.06825e-13

  Total energy:                                           -424.6517429944 a.u.
  Excitation energy:                                             304.074961 eV

  Osc. strength:                                                      0.115245
  Trans. dip. moment [a.u.]:           [   0.101253,   -0.055263,   -0.046514]
  <i|r^2|0> [a.u.]:                    [  -0.274727,   -0.486147,    0.002504]

  V1^2 = 0.9452, V2^2 = 0.0548

  Important amplitudes:
     core i     occ j      vir a      vir b          v   
    ------------------------------------------------------
     5 (A) B              23 (A) B                -0.6432
     5 (A) A              24 (A) A                -0.6175
    ------------------------------------------------------
  ----------------------------------------------------------------------------


  Excited state  7 (A)                                             [converged]
  ----------------------------------------------------------------------------
  Term symbol:  8 (-) A                                     R^2 =  1.91459e-13

  Total energy:                                           -424.6511722474 a.u.
  Excitation energy:                                             304.090492 eV

  Osc. strength:                                                      0.112814
  Trans. dip. moment [a.u.]:           [  -0.058334,   -0.016751,   -0.107048]
  <i|r^2|0> [a.u.]:                    [   0.159116,   -0.145627,   -0.005161]

  V1^2 = 0.9433, V2^2 = 0.0567

  Important amplitudes:
     core i     occ j      vir a      vir b          v   
    ------------------------------------------------------
     5 (A) B              24 (A) B                 0.7151
     5 (A) A              23 (A) A                -0.5347
    ------------------------------------------------------
  ----------------------------------------------------------------------------


  Excited state  8 (A)                                             [converged]
  ----------------------------------------------------------------------------
  Term symbol:  9 (-) A                                     R^2 =  3.18449e-13

  Total energy:                                           -424.6340884243 a.u.
  Excitation energy:                                             304.555366 eV

  Osc. strength:                                                      0.000818
  Trans. dip. moment [a.u.]:           [  -0.006014,   -0.007066,   -0.004849]
  <i|r^2|0> [a.u.]:                    [   0.015756,   -0.063386,   -0.000836]

  V1^2 = 0.9342, V2^2 = 0.0658

  Important amplitudes:
     core i     occ j      vir a      vir b          v   
    ------------------------------------------------------
     5 (A) A              25 (A) A                -0.6086
     5 (A) B              25 (A) B                 0.5466
    ------------------------------------------------------
  ----------------------------------------------------------------------------


  Excited state  9 (A)                                             [converged]
  ----------------------------------------------------------------------------
  Term symbol:  10 (-) A                                    R^2 =  1.41186e-13

  Total energy:                                           -424.5407262351 a.u.
  Excitation energy:                                             307.095881 eV

  Osc. strength:                                                      0.015195
  Trans. dip. moment [a.u.]:           [   0.016446,    0.040118,   -0.011822]
  <i|r^2|0> [a.u.]:                    [  -0.020169,    0.382883,    0.023723]

  V1^2 = 0.9180, V2^2 = 0.0820

  Important amplitudes:
     core i     occ j      vir a      vir b          v   
    ------------------------------------------------------
     5 (A) B              25 (A) B                 0.6205
     5 (A) A              25 (A) A                 0.5780
    ------------------------------------------------------
  ----------------------------------------------------------------------------


  Excited state 10 (A)                                             [converged]
  ----------------------------------------------------------------------------
  Term symbol:  11 (-) A                                    R^2 =  2.00794e-12

  Total energy:                                           -424.3128414467 a.u.
  Excitation energy:                                             313.296941 eV

  Osc. strength:                                                      0.000571
  Trans. dip. moment [a.u.]:           [   0.002562,    0.007517,   -0.003363]
  <i|r^2|0> [a.u.]:                    [  -0.010627,    0.062870,   -0.003846]

  V1^2 = 0.8935, V2^2 = 0.1065

  Important amplitudes:
     core i     occ j      vir a      vir b          v   
    ------------------------------------------------------
     5 (A) A              26 (A) A                 0.7507
     5 (A) B              26 (A) B                -0.4161
    ------------------------------------------------------
  ----------------------------------------------------------------------------


  Excited state 11 (A)                                             [converged]
  ----------------------------------------------------------------------------
  Term symbol:  12 (-) A                                    R^2 =  6.64229e-13

  Total energy:                                           -424.2912679320 a.u.
  Excitation energy:                                             313.883986 eV

  Osc. strength:                                                      0.007140
  Trans. dip. moment [a.u.]:           [  -0.009914,   -0.026884,    0.010369]
  <i|r^2|0> [a.u.]:                    [   0.039946,   -0.224706,    0.013804]

  V1^2 = 0.8956, V2^2 = 0.1044

  Important amplitudes:
     core i     occ j      vir a      vir b          v   
    ------------------------------------------------------
     5 (A) B              26 (A) B                -0.7685
     5 (A) A              26 (A) A                -0.4580
    ------------------------------------------------------
  ----------------------------------------------------------------------------


  Excited state 12 (A)                                             [converged]
  ----------------------------------------------------------------------------
  Term symbol:  13 (-) A                                    R^2 =  9.67514e-13

  Total energy:                                           -424.2757193035 a.u.
  Excitation energy:                                             314.307086 eV

  Osc. strength:                                                      0.005404
  Trans. dip. moment [a.u.]:           [  -0.012708,   -0.004313,   -0.022841]
  <i|r^2|0> [a.u.]:                    [   0.034055,   -0.037859,    0.000446]

  V1^2 = 0.8915, V2^2 = 0.1085

  Important amplitudes:
     core i     occ j      vir a      vir b          v   
    ------------------------------------------------------
     5 (A) A              27 (A) A                 0.7899
     5 (A) A              23 (A) A                 0.3757
    ------------------------------------------------------
  ----------------------------------------------------------------------------


  Excited state 13 (A)                                             [converged]
  ----------------------------------------------------------------------------
  Term symbol:  14 (-) A                                    R^2 =  3.10118e-12

  Total energy:                                           -424.2662710774 a.u.
  Excitation energy:                                             314.564185 eV

  Osc. strength:                                                      0.000807
  Trans. dip. moment [a.u.]:           [   0.008349,   -0.004541,   -0.003789]
  <i|r^2|0> [a.u.]:                    [  -0.022081,   -0.040306,   -0.000002]

  V1^2 = 0.8915, V2^2 = 0.1085

  Important amplitudes:
     core i     occ j      vir a      vir b          v   
    ------------------------------------------------------
     5 (A) A              28 (A) A                 0.6853
     5 (A) B              28 (A) B                 0.4879
    ------------------------------------------------------
  ----------------------------------------------------------------------------


  Excited state 14 (A)                                             [converged]
  ----------------------------------------------------------------------------
  Term symbol:  15 (-) A                                    R^2 =  6.14088e-13

  Total energy:                                           -424.2526682994 a.u.
  Excitation energy:                                             314.934336 eV

  Osc. strength:                                                      0.023199
  Trans. dip. moment [a.u.]:           [   0.025543,    0.006898,    0.048029]
  <i|r^2|0> [a.u.]:                    [  -0.067555,    0.061178,   -0.000077]

  V1^2 = 0.8905, V2^2 = 0.1095

  Important amplitudes:
     core i     occ j      vir a      vir b          v   
    ------------------------------------------------------
     5 (A) B              27 (A) B                -0.8132
     5 (A) A              27 (A) A                -0.3277
    ------------------------------------------------------
  ----------------------------------------------------------------------------


  Excited state 15 (A)                                             [converged]
  ----------------------------------------------------------------------------
  Term symbol:  16 (-) A                                    R^2 =  9.10432e-13

  Total energy:                                           -424.2494646760 a.u.
  Excitation energy:                                             315.021511 eV

  Osc. strength:                                                      0.028230
  Trans. dip. moment [a.u.]:           [   0.049359,   -0.026833,   -0.022395]
  <i|r^2|0> [a.u.]:                    [  -0.130409,   -0.238195,   -0.000140]

  V1^2 = 0.8936, V2^2 = 0.1064

  Important amplitudes:
     core i     occ j      vir a      vir b          v   
    ------------------------------------------------------
     5 (A) B              28 (A) B                -0.7071
     5 (A) A              28 (A) A                 0.5147
    ------------------------------------------------------
  ----------------------------------------------------------------------------


  Excited state 16 (A)                                             [converged]
  ----------------------------------------------------------------------------
  Term symbol:  17 (-) A                                    R^2 =  6.97970e-13

  Total energy:                                           -424.2232015361 a.u.
  Excitation energy:                                             315.736167 eV

  Osc. strength:                                                      0.000167
  Trans. dip. moment [a.u.]:           [  -0.001799,   -0.004165,    0.001020]
  <i|r^2|0> [a.u.]:                    [   0.003011,   -0.038721,   -0.001768]

  V1^2 = 0.8879, V2^2 = 0.1121

  Important amplitudes:
     core i     occ j      vir a      vir b          v   
    ------------------------------------------------------
     5 (A) A              29 (A) A                 0.6665
     5 (A) B              29 (A) B                -0.5115
    ------------------------------------------------------
  ----------------------------------------------------------------------------


  Excited state 17 (A)                                             [converged]
  ----------------------------------------------------------------------------
  Term symbol:  18 (-) A                                    R^2 =  1.45148e-12

  Total energy:                                           -424.2049893091 a.u.
  Excitation energy:                                             316.231747 eV

  Osc. strength:                                                      0.013346
  Trans. dip. moment [a.u.]:           [   0.014611,    0.036933,   -0.012043]
  <i|r^2|0> [a.u.]:                    [  -0.026171,    0.340319,    0.012463]

  V1^2 = 0.8910, V2^2 = 0.1090

  Important amplitudes:
     core i     occ j      vir a      vir b          v   
    ------------------------------------------------------
     5 (A) B              29 (A) B                -0.6958
     5 (A) A              29 (A) A                -0.5501
    ------------------------------------------------------
  ----------------------------------------------------------------------------


  Excited state 18 (A)                                         [not converged]
  ----------------------------------------------------------------------------
  Term symbol:  19 (-) A                                    R^2 =  1.96504e-05

  Total energy:                                           -423.7309576906 a.u.
  Excitation energy:                                             329.130803 eV


  V1^2 = 0.8830, V2^2 = 0.1170

  Important amplitudes:
     core i     occ j      vir a      vir b          v   
    ------------------------------------------------------
     5 (A) A              31 (A) A                -0.9008
     5 (A) A              36 (A) A                 0.1583
    ------------------------------------------------------
  ----------------------------------------------------------------------------


  Excited state 19 (A)                                             [converged]
  ----------------------------------------------------------------------------
  Term symbol:  20 (-) A                                    R^2 =  2.39447e-07

  Total energy:                                           -423.7096596142 a.u.
  Excitation energy:                                             329.710354 eV

  Osc. strength:                                                      0.000056
  Trans. dip. moment [a.u.]:           [  -0.002148,    0.001171,    0.000974]
  <i|r^2|0> [a.u.]:                    [   0.005254,    0.015448,   -0.004629]

  V1^2 = 0.8845, V2^2 = 0.1155

  Important amplitudes:
     core i     occ j      vir a      vir b          v   
    ------------------------------------------------------
     5 (A) A              32 (A) A                 0.9163
     5 (A) A              37 (A) A                 0.1550
    ------------------------------------------------------
  ----------------------------------------------------------------------------


  Excited state 20 (A)                                         [not converged]
  ----------------------------------------------------------------------------
  Term symbol:  21 (-) A                                    R^2 =  1.60868e-06

  Total energy:                                           -423.6991547511 a.u.
  Excitation energy:                                             329.996205 eV


  V1^2 = 0.8849, V2^2 = 0.1151

  Important amplitudes:
     core i     occ j      vir a      vir b          v   
    ------------------------------------------------------
     5 (A) B              31 (A) B                -0.9176
     5 (A) B              36 (A) B                -0.1541
    ------------------------------------------------------
  ----------------------------------------------------------------------------


--------------------------------------------------------------------------------
  Time of ADC calculation:  CPU 1188.38 s  wall 1216.77 s
================================================================================
 
 --------------------------------------------------------------
 
                    Orbital Energies (a.u.)
 --------------------------------------------------------------
 
 Alpha MOs
 -- Occupied --
-27.007 -26.681 -26.658 -26.658 -11.930  -2.320  -2.057  -1.970
 -1.956  -1.443  -1.417  -1.318  -1.228  -1.140  -1.127  -1.036
 -1.009  -1.007  -0.968  -0.963  -0.946
 -- Virtual --
  0.049   0.110   0.121   0.179   0.320   0.377   0.385   0.431
  0.905   0.921   0.949   1.044   1.051   1.135   1.161   1.196
  1.305   1.314   1.355   1.358   1.390   1.391   1.444   1.444
  1.514   1.712   1.713   1.823   1.837   1.844   1.878   1.925
  1.928   1.935   1.952   1.970   2.075   2.082   2.124   2.286
  2.590   2.610   2.619   2.840   2.846   3.008   3.117   3.129
  3.134   4.325   4.408   4.465   4.473   6.006
 
 Beta MOs
 -- Occupied --
-26.955 -26.677 -26.658 -26.657 -11.932  -2.171  -2.026  -1.960
 -1.954  -1.398  -1.273  -1.221  -1.151  -1.119  -1.012  -1.001
 -0.998  -0.967  -0.960  -0.944
 -- Virtual --
 -0.470   0.072   0.122   0.147   0.180   0.328   0.383   0.384
  0.432   0.925   0.960   1.002   1.053   1.053   1.140   1.204
  1.242   1.317   1.327   1.360   1.366   1.392   1.394   1.486
  1.488   1.520   1.741   1.746   1.825   1.841   1.846   1.892
  1.936   1.937   1.962   1.974   1.979   2.083   2.084   2.125
  2.292   2.607   2.622   2.622   2.846   2.846   3.025   3.119
  3.131   3.134   4.344   4.408   4.468   4.474   6.010
 --------------------------------------------------------------
 
          Ground-State Mulliken Net Atomic Charges

     Atom                 Charge (a.u.)    Spin (a.u.)
  --------------------------------------------------------
      1 C                     1.330286      -0.077017
      2 F                    -0.232558       0.013626
      3 F                    -0.232596       0.013535
      4 F                     0.345741       0.978350
      5 F                    -0.210872       0.071506
  --------------------------------------------------------
  Sum of atomic charges =     1.000000
  Sum of spin   charges =     1.000000

 -----------------------------------------------------------------
                    Cartesian Multipole Moments
 -----------------------------------------------------------------
    Charge (ESU x 10^10)
                 4.8032
    Dipole Moment (Debye)
         X      -4.6370      Y       8.0691      Z       1.0371
       Tot       9.3642
    Quadrupole Moments (Debye-Ang)
        XX     -17.6431     XY      -7.0867     YY      -6.9494
        XZ      -0.9796     YZ       0.8855     ZZ     -21.2134
    Octopole Moments (Debye-Ang^2)
       XXX      41.1710    XXY     -46.4137    XYY       3.2696
       YYY    -125.8481    XXZ       1.0037    XYZ      -0.9213
       YYZ      -0.1008    XZZ      14.4333    YZZ     -51.3036
       ZZZ       0.9983
    Hexadecapole Moments (Debye-Ang^3)
      XXXX    -128.8575   XXXY     104.2864   XXYY    -149.7199
      XYYY      86.8332   YYYY    -743.3122   XXXZ      -1.3528
      XXYZ       0.8283   XYYZ      -0.5575   YYYZ      -3.8683
      XXZZ     -33.9867   XYZZ      35.0906   YYZZ    -145.7694
      XZZZ      -0.5782   YZZZ       0.0432   ZZZZ     -69.8658
 -----------------------------------------------------------------
Archival summary:
1\1\tp-linux1\SP\HF\6-31G*\41(1+,2)\thomas\WedMar2211:06:202017WedMar2211:06:202017\0\\#,HF,6-31G*,\\1,2\C\F,1,1.30149\F,1,1.30149,2,109.471\F,1,1.30149,2,109.471,3,120,0\F,1,1.3015,2,109.471,3,-119.999,0\\HF=-435.067792\\@

 Total job time:  1232.41s(wall), 1197.89s(cpu) 
 Wed Mar 22 11:06:20 2017

        *************************************************************
        *                                                           *
        *  Thank you very much for using Q-Chem.  Have a nice day.  *
        *                                                           *
        *************************************************************


0 sent ACK to 0 
now end server 0 ... 
cleanup process ... done
