
Running Job 1 of 1 ddtraj1t25.inp
qchem ddtraj1t25.inp_20994.0 /scratch/qchem/qchem20994/ 1
/mnt/software/qchem/bin/mpi/mpirun_qchem -machinefile /mnt/software/qchem/bin/mpi/machines -np 1 /mnt/software/qchem/exe/qcprog.exe ddtraj1t25.inp_20994.0 /scratch/qchem/qchem20994/

Process 0 of 1 is on tp-linux1 - thread support 0
initial socket setup ...start
initial socket setup ...done 
now start server 0 ... 

cmd = ssh tp-linux1 /mnt/software/qchem/bin/get_hostid 73549773 > /scratch/qchem/qchem20994/lic.dat
                  Welcome to Q-Chem
     A Quantum Leap Into The Future Of Chemistry


 Q-Chem 4.3, Q-Chem, Inc., Pleasanton, CA (2015)

 Y. Shao,  Z. Gan,  E. Epifanovsky,  A. T. B. Gilbert,  M. Wormit,  
 J. Kussmann,  A. W. Lange,  A. Behn,  J. Deng,  X. Feng,  D. Ghosh,  
 M. Goldey,  P. R. Horn,  L. D. Jacobson,  I. Kaliman,  R. Z. Khaliullin,  
 T. Kus,  A. Landau,  J. Liu,  E. I. Proynov,  Y. M. Rhee,  R. M. Richard,  
 M. A. Rohrdanz,  R. P. Steele,  E. J. Sundstrom,  H. L. Woodcock III,  
 P. M. Zimmerman,  D. Zuev,  B. Albrecht,  E. Alguire,  B. Austin,  
 S. A. Baeppler,  G. J. O. Beran,  Y. A. Bernard,  E. Berquist,  
 K. Brandhorst,  K. B. Bravaya,  S. T. Brown,  D. Casanova,  C.-M. Chang,  
 Y. Chen,  S. H. Chien,  K. D. Closser,  D. L. Crittenden,  M. Diedenhofen,  
 R. A. DiStasio Jr.,  H. Do,  A. D. Dutoi,  R. G. Edgar,  P.-T. Fang,  
 S. Fatehi,  Q. Feng,  L. Fusti-Molnar,  A. Ghysels,  
 A. Golubeva-Zadorozhnaya,  J. Gomes,  A. Gunina,  M. W. D. Hanson-Heine,  
 P. H. P. Harbach,  A. W. Hauser,  E. G. Hohenstein,  Z. C. Holden,  K. Hui,  
 T.-C. Jagau,  H. Ji,  B. Kaduk,  K. Khistyaev,  Jaehoon Kim,  Jihan Kim,  
 R. A. King,  P. Klunzinger,  D. Kosenkov,  T. Kowalczyk,  C. M. Krauter,  
 K. U. Lao,  A. Laurent,  K. V. Lawler,  S. Lehtola,  S. V. Levchenko,  
 C. Y. Lin,  Y.-S. Lin,  F. Liu,  E. Livshits,  R. C. Lochan,  A. Luenser,  
 P. Manohar,  S. F. Manzer,  S.-P. Mao,  N. Mardirossian,  A. V. Marenich,  
 L. A. Martinez-Martinez,  S. A. Maurer,  N. J. Mayhall,  K. Nanda,  
 C. M. Oana,  R. Olivares-Amaya,  D. P. O'Neill,  J. A. Parkhill,  
 T. M. Perrine,  R. Peverati,  P. A. Pieniazek,  F. Plasser,  A. Prociuk,  
 D. R. Rehn,  E. Rosta,  N. J. Russ,  N. Sergueev,  S. M. Sharada,  
 S. Sharma,  D. W. Small,  A. Sodt,  T. Stauch,  T. Stein,  D. Stuck,  
 Y.-C. Su,  A. J. W. Thom,  T. Tsuchimochi,  L. Vogt,  O. Vydrov,  T. Wang,  
 M. A. Watson,  J. Wenzel,  A. White,  C. F. Williams,  V. Vanovschi,  
 S. Yeganeh,  S. R. Yost,  Z.-Q. You,  I. Y. Zhang,  X. Zhang,  Y. Zhao,  
 B. R. Brooks,  G. K. L. Chan,  D. M. Chipman,  C. J. Cramer,  
 W. A. Goddard III,  M. S. Gordon,  W. J. Hehre,  A. Klamt,  
 H. F. Schaefer III,  M. W. Schmidt,  C. D. Sherrill,  D. G. Truhlar,  
 A. Warshel,  X. Xu,  A. Aspuru-Guzik,  R. Baer,  A. T. Bell,  N. A. Besley,  
 J.-D. Chai,  A. Dreuw,  B. D. Dunietz,  T. R. Furlani,  S. R. Gwaltney,  
 C.-P. Hsu,  Y. Jung,  J. Kong,  D. S. Lambrecht,  W. Liang,  C. Ochsenfeld,  
 V. A. Rassolov,  L. V. Slipchenko,  J. E. Subotnik,  T. Van Voorhis,  
 J. M. Herbert,  A. I. Krylov,  P. M. W. Gill,  M. Head-Gordon

 Contributors to earlier versions of Q-Chem not listed above: 
 R. D. Adamson,  J. Baker,  E. F. C. Byrd,  A. K. Chakraborty,  C.-L. Cheng,  
 H. Dachsel,  R. J. Doerksen,  G. Hawkins,  A. Heyden,  S. Hirata,  
 G. Kedziora,  F. J. Keil,  C. Kelley,  P. P. Korambath,  W. Kurlancheek,  
 A. M. Lee,  M. S. Lee,  D. Liotard,  I. Lotan,  P. E. Maslen,  N. Nair,  
 D. Neuhauser,  R. Olson,  B. Peters,  J. Ritchie,  N. E. Schultz,  
 N. Shenvi,  A. C. Simmonett,  K. S. Thanthiriwatte,  Q. Wu,  W. Zhang

 Please cite Q-Chem as follows:
 Y. Shao et al., Mol. Phys. 113, 184-215 (2015)
 DOI: 10.1080/00268976.2014.952696

 Q-Chem 4.3.0 for Intel X86 Linux

 Parts of Q-Chem use Armadillo 5.200.1 (Boston Tea Smuggler).
 http://arma.sourceforge.net/

 Q-Chem begins on Wed Mar 22 20:51:46 2017  

Host: 
0

     Scratch files written to /scratch/qchem/qchem20994//
 Nov1815 1189b_ 19540  19532 5443   
 Parallel job on  1  processors
Processing $rem in /mnt/software/qchem/config/preferences.
 MEM_TOTAL  2000 

Checking the input file for inconsistencies... 	...done.

--------------------------------------------------------------
User input:
--------------------------------------------------------------
$comment
XAS calculation for valence excited states for CF4+ using cvs-adc(2) + 6-31G* basis set
job 1 - determination of HF orbitals
$end

$molecule
1 2
6  -0.469676  2.967592  -0.233795
9  0.586927  2.3976  -0.025856
9  -1.10904  3.32102  0.741507
9  -1.323633  0.65408  0.652195
9  -1.096668  2.635692  -1.220175
$end

$comment
cvs-adc(2) calculation
$end

$rem
mem_total 3000
mem_static 1500
sym_ignore true
method cvs-adc(2)
basis 6-31G*
ee_singlets 20
cc_rest_occ 5                  !only excitations from the lowest N orbitals
unrestricted  true
max_scf_cycles 200
SCF_ALGORITHM = DIIS_GDM
SCF_CONVERGENCE = 7
THRESH = 10
$end
--------------------------------------------------------------
 ----------------------------------------------------------------
             Standard Nuclear Orientation (Angstroms)
    I     Atom           X                Y                Z
 ----------------------------------------------------------------
    1      C      -0.4696760000     2.9675920000    -0.2337950000
    2      F       0.5869270000     2.3976000000    -0.0258560000
    3      F      -1.1090400000     3.3210200000     0.7415070000
    4      F      -1.3236330000     0.6540800000     0.6521950000
    5      F      -1.0966680000     2.6356920000    -1.2201750000
 ----------------------------------------------------------------
 Nuclear Repulsion Energy =   190.9203737398 hartrees
 There are       21 alpha and       20 beta electrons
 Requested basis set is 6-31G(d)
 There are 20 shells and 75 basis functions

 Total QAlloc Memory Limit   3000 MB
 Mega-Array Size      1467 MB
 MEM_STATIC part      1500 MB

                       Distance Matrix (Angstroms)
             C (  1)   F (  2)   F (  3)   F (  4)
   F (  2)  1.218417
   F (  3)  1.218570  2.077945
   F (  4)  2.620412  2.673921  2.677050
   F (  5)  1.214999  2.077878  2.077986  2.735703
 
 tim1(1): 
  4.000000000000004E-003
 tim1(2): 
  0.000000000000000E+000
 A cutoff of  1.0D-10 yielded    196 shell pairs
 There are      2950 function pairs
 
 -------------------------------------------------------
 OpenMP Integral Computing Module                       
 Release: version 1.0, May 2013, Q-Chem Inc. Pittsburgh 
 -------------------------------------------------------
 Integral Job Info:
 Integral job number is                      11
 Integral operator is                         1
 short-range coefficients                     0
 long-range coefficients              100000000
 Omega coefficients                           0
 if combine SR and LR in K                    0
 Integral screening is                        0
 Integral computing path is                   2
 max size of driver memory is            800000
 size of driver memory is                593474
 size of scratch memory is              2260544
 max col of scratch BK array               1296
 max len of scratch array in speh3          155
 max len of scratch index in speh4           18
 max int batch size is                      520
 min int batch size is                       52
 fixed nKL is                                52
 max L of basis functions is                  2
 order of int derivative is                   0
 number of shells is                         20
 number of basis is                          75
 number of cartesian basis is                75
 number of contracted shell pairs           196
 number of primitive shell pairs           1001
 maxK2 (contraction) of shell pair           36
 max number of K2 of shell pair               1
 max number of CS2 of shell pair             32
 max number of PS2 of shell pair            192
 mem total for path MDJ                   21832
 -------------------------------------------------------
 Smallest overlap matrix eigenvalue = 2.18E-03

 Scale SEOQF with 1.000000e+00/1.000000e-01/1.000000e+00

 Standard Electronic Orientation quadrupole field applied
 Nucleus-field energy     =     0.0000000102 hartrees
 Guess from superposition of atomic densities
 Warning:  Energy on first SCF cycle will be non-variational
 An unrestricted Hartree-Fock SCF calculation will be
 performed using Pulay DIIS + Geometric Direct Minimization
 SCF converges when RMS gradient is below 1.0E-07
 ---------------------------------------
  Cycle       Energy         DIIS Error
 ---------------------------------------
    1    -436.4346185224      9.28E-02
    2    -434.9629994850      1.79E-02
    3    -435.1223490659      8.34E-03 Done DIIS. Switching to GDM
    4    -435.1542560675      9.36E-03 Normal BFGS step
    5    -435.1553346472      8.69E-03 Normal BFGS step
    6    -435.1556961377      2.42E-03 Normal BFGS step
    7    -435.1557232771      2.37E-03 Normal BFGS step
    8    -435.1557346200      2.31E-03 Normal BFGS step
    9    -435.1557520184      2.19E-03 Normal BFGS step
   10    -435.1557869131      1.95E-03 Normal BFGS step
   11    -435.1558516907      1.72E-03 Normal BFGS step
   12    -435.1559372307      1.78E-03 Normal BFGS step
   13    -435.1559974879      1.01E-03 Normal BFGS step
   14    -435.1560153418      2.22E-04 Normal BFGS step
   15    -435.1560168777      1.41E-04 Normal BFGS step
   16    -435.1560170602      6.72E-05 Normal BFGS step
   17    -435.1560171053      2.84E-05 Normal BFGS step
   18    -435.1560171190      2.19E-05 Normal BFGS step
   19    -435.1560171234      2.19E-05 Normal BFGS step
   20    -435.1560171243      2.19E-05 Normal BFGS step
   21    -435.1560171261      2.20E-05 Normal BFGS step
   22    -435.1560171295      2.20E-05 Normal BFGS step
   23    -435.1560171387      2.49E-05 Normal BFGS step
   24    -435.1560171613      4.31E-05 Normal BFGS step
   25    -435.1560172198      7.17E-05 Normal BFGS step
   26    -435.1560173714      1.15E-04 Normal BFGS step
   27    -435.1560177743      1.85E-04 Normal BFGS step
   28    -435.1560183473      5.45E-04 Normal BFGS step
   29    -435.1560193576      2.95E-04 Normal BFGS step
   30    -435.1560222960      1.30E-03 Normal BFGS step
   31    -435.1560232959      3.24E-04 Normal BFGS step
   32    -435.1560248458      2.56E-04 Normal BFGS step
   33    -435.1560246543      4.17E-03 Line search: overstep
   34    -435.1560254908      6.73E-04 Normal BFGS step
   35    -435.1560262909      7.74E-04 Normal BFGS step
   36    -435.1560284043      6.87E-04 Normal BFGS step
   37    -435.1560300577      5.47E-04 Normal BFGS step
   38    -435.1560329135      4.00E-04 Normal BFGS step
   39    -435.1560357497      5.37E-04 Normal BFGS step
   40    -435.1560376141      6.52E-04 Dog-leg BFGS step
   41    -435.1559578442      2.28E-02 Line search: overstep
   42    -435.1560385645      6.26E-04 Dog-leg BFGS step
   43    -435.1560394478      1.26E-03 Normal BFGS step
   44    -435.1560400993      4.54E-04 Normal BFGS step
   45    -435.1560410628      1.93E-04 Normal BFGS step
   46    -435.1560417113      5.93E-04 Normal BFGS step
   47    -435.1560423972      5.24E-04 Normal BFGS step
   48    -435.1560444664      1.21E-04 Normal BFGS step
   49    -435.1560399179      6.69E-03 Line search: overstep
   50    -435.1560448485      2.93E-04 Dog-leg BFGS step
   51    -435.1560457366      6.89E-04 Normal BFGS step
   52    -435.1560468146      7.15E-05 Normal BFGS step
   53    -435.1560475998      1.33E-04 Normal BFGS step
   54    -435.1560472704      2.81E-03 Line search: overstep
   55    -435.1560479395      2.53E-04 Normal BFGS step
   56    -435.1560483655      2.02E-04 Normal BFGS step
   57    -435.1560485769      4.68E-05 Normal BFGS step
   58    -435.1560486338      1.67E-04 Normal BFGS step
   59    -435.1560486861      2.91E-05 Normal BFGS step
   60    -435.1560486988      3.36E-05 Normal BFGS step
   61    -435.1560487079      3.90E-05 Normal BFGS step
   62    -435.1560487117      3.96E-05 Normal BFGS step
   63    -435.1560487245      3.98E-05 Normal BFGS step
   64    -435.1560487407      3.75E-05 Normal BFGS step
   65    -435.1560487699      5.67E-05 Normal BFGS step
   66    -435.1560488063      6.65E-05 Normal BFGS step
   67    -435.1560488380      4.41E-05 Normal BFGS step
   68    -435.1560488523      2.07E-05 Normal BFGS step
   69    -435.1560488536      2.65E-05 Normal BFGS step
   70    -435.1560488567      4.92E-06 Normal BFGS step
   71    -435.1560488568      2.58E-06 Normal BFGS step
   72    -435.1560488569      1.37E-06 Normal BFGS step
   73    -435.1560488569      6.88E-07 Normal BFGS step
   74    -435.1560488569      3.88E-07 Normal BFGS step
   75    -435.1560488569      1.81E-07 Normal BFGS step
   76    -435.1560488569      4.81E-08 Convergence criterion met
 ---------------------------------------
 <S^2> = 0.7529
 SCF time:  CPU 12.60 s  wall 17.20 s
 SCF   energy in the final basis set = -435.1560488569
 Total energy in the final basis set = -435.1560488569
================================================================================
|                                                                              |
|                                 A D C  M A N                                 |
|                                                                              |
 ------------------------------------------------------------------------------ 
|                                                                              |
| Components:                                                                  |
|                                                                              |
| - libvmm - 1.2-release                                                       |
|   Authors:                                                                   |
|   Evgeny Epifanovsky, Ilya Kaliman                                           |
|                                                                              |
| - libtensor - 2.4-trunk                                                      |
|   Authors:                                                                   |
|   Evgeny Epifanovsky, Michael Wormit, Dmitry Zuev, Sam Manzer                |
|                                                                              |
| - libwfa - 1.1-beta                                                          |
|   Authors:                                                                   |
|   Felix Plasser, Stefanie Baeppler, Benjamin Thomitzni, Michael Wormit       |
|                                                                              |
| - libadc - 1.0-beta                                                          |
|   Authors:                                                                   |
|   Michael Wormit, Philipp H. P. Harbach, Caroline Krauter, Dirk Rehn,        |
|   Matthias Schneider, Jan Wenzel                                             |
|                                                                              |
| - adcman - 2.4-beta                                                          |
|   Authors:                                                                   |
|   Michael Wormit, Philipp H. P. Harbach, Caroline Krauter, Dirk Rehn,        |
|   Jan Wenzel, Andreas Dreuw                                                  |
|                                                                              |
| Authors of earlier versions of ADCMAN:                                       |
| Andreas Dreuw, Jan Hendrik Starcke, Dirk Rehn, Michael Wormit                |
|                                                                              |
================================================================================

 
 Alpha MOs, Unrestricted
 -- Occupied --                  
-26.743 -26.742 -26.742 -26.611 -11.951  -2.174  -2.061  -2.059
  1 A     2 A     3 A     4 A     5 A     6 A     7 A     8 A                  
 -1.863  -1.323  -1.239  -1.239  -1.189  -1.071  -1.071  -1.043
  9 A    10 A    11 A    12 A    13 A    14 A    15 A    16 A                  
 -1.040  -1.025  -1.017  -0.924  -0.921
 17 A    18 A    19 A    20 A    21 A                                          
 -- Virtual --                   
 -0.243   0.097   0.182   0.184   0.358   0.408   0.412   0.444
 22 A    23 A    24 A    25 A    26 A    27 A    28 A    29 A                  
  0.957   1.010   1.012   1.023   1.057   1.074   1.177   1.214
 30 A    31 A    32 A    33 A    34 A    35 A    36 A    37 A                  
  1.262   1.289   1.290   1.312   1.331   1.340   1.395   1.512
 38 A    39 A    40 A    41 A    42 A    43 A    44 A    45 A                  
  1.652   1.654   1.742   1.746   1.785   1.817   1.833   1.843
 46 A    47 A    48 A    49 A    50 A    51 A    52 A    53 A                  
  1.862   1.881   1.906   1.940   1.946   2.003   2.004   2.095
 54 A    55 A    56 A    57 A    58 A    59 A    60 A    61 A                  
  2.402   2.618   2.636   2.642   2.964   2.967   3.196   3.197
 62 A    63 A    64 A    65 A    66 A    67 A    68 A    69 A                  
  3.288   3.675   4.288   4.644   4.652   5.783
 70 A    71 A    72 A    73 A    74 A    75 A                                  
 
 Beta MOs, Unrestricted
 -- Occupied --                  
-26.743 -26.742 -26.742 -26.563 -11.951  -2.174  -2.061  -2.059
  1 A     2 A     3 A     4 A     5 A     6 A     7 A     8 A                  
 -1.671  -1.323  -1.239  -1.239  -1.188  -1.071  -1.070  -1.040
  9 A    10 A    11 A    12 A    13 A    14 A    15 A    16 A                  
 -1.039  -1.017  -0.871  -0.869
 17 A    18 A    19 A    20 A                                                  
 -- Virtual --                   
 -0.243  -0.111   0.099   0.184   0.185   0.360   0.409   0.412
 21 A    22 A    23 A    24 A    25 A    26 A    27 A    28 A                  
  0.448   0.974   1.012   1.012   1.036   1.078   1.087   1.225
 29 A    30 A    31 A    32 A    33 A    34 A    35 A    36 A                  
  1.255   1.269   1.290   1.290   1.312   1.350   1.400   1.439
 37 A    38 A    39 A    40 A    41 A    42 A    43 A    44 A                  
  1.524   1.654   1.655   1.747   1.750   1.785   1.845   1.850
 45 A    46 A    47 A    48 A    49 A    50 A    51 A    52 A                  
  1.864   1.939   1.946   1.947   1.954   1.966   2.004   2.011
 53 A    54 A    55 A    56 A    57 A    58 A    59 A    60 A                  
  2.095   2.404   2.625   2.636   2.642   2.964   2.967   3.196
 61 A    62 A    63 A    64 A    65 A    66 A    67 A    68 A                  
  3.197   3.292   3.710   4.288   4.644   4.652   5.786
 69 A    70 A    71 A    72 A    73 A    74 A    75 A                          
 

--------------------------------------------------------------------------------
                                   HF Summary                                   
--------------------------------------------------------------------------------
  Energy:                                                 -435.1560488569 a.u.
  Dip. moment [a.u.]:                  [ -54.470881,  181.274184,    0.296901]
  Total dipole [Debye]:                                             481.105732
  <r^2> [a.u.]:                        [ 164.646767,  948.277271,   95.692791]
  Total <r^2> [a.u.]:                                              1208.616828
--------------------------------------------------------------------------------

--------------------------------------------------------------------------------
                                 MP(2) Summary                                  
--------------------------------------------------------------------------------
  Energy contribution:                                      -0.7431280215 a.u.
  Total energy:                                           -435.8991768784 a.u.
  Dip. moment [a.u.]:                  [ -54.418852,  181.409701,    0.248758]
  Total dipole [Debye]:                                             481.397431
  <r^2> [a.u.]:                        [ 164.319724,  949.865072,   95.488836]
  Total <r^2> [a.u.]:                                              1209.673631
--------------------------------------------------------------------------------
  Starting Davidson ... 
--------------------------------------------------------------------------------
   It NVec Conv  Avg. Norm  Max. Norm  Conv. states           Remark
--------------------------------------------------------------------------------
        20    0  2.090e-01  1.152e+00 10.9539 n n n n n n n n Guess.
    1   40    0  4.822e-02  7.199e-01 10.7913 n n n n n n n n 
    2   60    0  1.026e-02  1.228e-01 10.7900 n n n n n n n n 
    3   80    0  3.104e-03  3.838e-02 10.7899 n n n n n n n n 
    4  100    0  1.543e-03  2.149e-02 10.7899 n n n n n n n n 
    5   40    0  1.116e-03  1.420e-02 10.7899 n n n n n n n n Subspace collapsed.
    6   60    0  1.279e-03  1.744e-02 10.7899 n n n n n n n n 
    7   80    0  1.646e-03  2.364e-02 10.7899 n n n n n n n n 
    8  100    2  1.933e-03  3.264e-02 10.7899 y y n n n n n n 
    9   40    6  9.676e-04  1.720e-02 10.7899 y y n n y y n y Subspace collapsed.
   10   60    7  6.894e-04  1.252e-02 10.7899 y y n y y y n y 
   11   80    8  5.307e-04  9.887e-03 10.7899 y y n y y y y y 
   12  100   12  7.188e-04  1.371e-02 10.7899 y y y y y y y y 
   13   40   16  4.529e-04  8.506e-03 10.7899 y y y y y y y y Subspace collapsed.
   14   60   16  5.122e-04  9.685e-03 10.7899 y y y y y y y y 
   15   80   16  6.993e-04  1.350e-02 10.7899 y y y y y y y y 
   16   99   16  1.023e-03  2.009e-02 10.7899 y y y y y y y y 
   17  100   16  1.023e-03  2.009e-02 10.7899 y y y y y y y y 
   18   38   16  6.298e-04  1.244e-02 10.7899 y y y y y y y y Subspace collapsed.
   19   56   17  4.314e-04  8.471e-03 10.7899 y y y y y y y y 
   20   58   17  4.243e-04  8.329e-03 10.7899 y y y y y y y y 
   21   59   17  4.222e-04  8.288e-03 10.7899 y y y y y y y y 
   22   60   17  4.255e-04  8.356e-03 10.7899 y y y y y y y y 
   23   61   17  4.293e-04  8.432e-03 10.7899 y y y y y y y y 
   24   62   17  4.256e-04  8.358e-03 10.7899 y y y y y y y y 
   25   63   17  4.285e-04  8.419e-03 10.7899 y y y y y y y y 
   26   65   17  4.277e-04  8.407e-03 10.7899 y y y y y y y y 
   27   66   17  4.449e-04  8.757e-03 10.7899 y y y y y y y y 
   28   67   17  4.715e-04  9.295e-03 10.7899 y y y y y y y y 
   29   67   17  4.715e-04  9.295e-03 10.7899 y y y y y y y y 
   30   87   17  4.956e-04  9.840e-03 10.7899 y y y y y y y y 
   31   98   17  4.551e-04  8.989e-03 10.7899 y y y y y y y y 
   32  100   17  4.558e-04  9.004e-03 10.7899 y y y y y y y y 
   33   31   17  3.493e-04  6.917e-03 10.7899 y y y y y y y y Subspace collapsed.
   34   42   17  2.905e-04  5.732e-03 10.7899 y y y y y y y y 
   35   53   17  3.841e-04  7.599e-03 10.7899 y y y y y y y y 
   36   64   17  4.016e-04  7.941e-03 10.7899 y y y y y y y y 
   37   75   17  7.217e-04  1.434e-02 10.7899 y y y y y y y y 
   38   79   17  7.207e-04  1.432e-02 10.7899 y y y y y y y y 
   39   81   17  7.202e-04  1.431e-02 10.7899 y y y y y y y y 
   40   86   17  5.748e-04  1.145e-02 10.7899 y y y y y y y y 
   41   91   17  4.419e-04  8.801e-03 10.7899 y y y y y y y y 
   42   95   17  3.157e-04  6.271e-03 10.7899 y y y y y y y y 
   43   99   17  2.893e-04  5.716e-03 10.7899 y y y y y y y y 
   44  100   17  2.978e-04  5.875e-03 10.7899 y y y y y y y y 
   45   24   17  1.323e-04  2.605e-03 10.7899 y y y y y y y y Subspace collapsed.
   46   28   17  1.224e-04  2.415e-03 10.7899 y y y y y y y y 
   47   32   17  8.568e-05  1.685e-03 10.7899 y y y y y y y y 
   48   36   17  8.666e-05  1.702e-03 10.7899 y y y y y y y y 
   49   40   17  9.041e-05  1.769e-03 10.7899 y y y y y y y y 
   50   44   17  8.950e-05  1.749e-03 10.7899 y y y y y y y y 
   51   44   17  8.950e-05  1.749e-03 10.7899 y y y y y y y y 
   52   45   17  8.950e-05  1.749e-03 10.7899 y y y y y y y y 
   53   45   17  8.950e-05  1.749e-03 10.7899 y y y y y y y y 
   54   45   17  8.950e-05  1.749e-03 10.7899 y y y y y y y y 
   55   65   17  5.943e-05  1.153e-03 10.7899 y y y y y y y y 
   56   65   17  5.943e-05  1.153e-03 10.7899 y y y y y y y y 
   57   76   17  3.529e-05  6.808e-04 10.7899 y y y y y y y y 
   58   79   17  2.336e-05  4.466e-04 10.7899 y y y y y y y y 
   59   82   17  2.510e-05  4.768e-04 10.7899 y y y y y y y y 
--------------------------------------------------------------------------------
  Davidson Summary: 
 ------------------------------------------------------------
  State  0: excitation energy =  10.7899 a.u.   (converged)
  State  1: excitation energy =  10.8595 a.u.   (converged)
  State  2: excitation energy =  11.1865 a.u.   (converged)
  State  3: excitation energy =  11.1965 a.u.   (converged)
  State  4: excitation energy =  11.2206 a.u.   (converged)
  State  5: excitation energy =  11.2242 a.u.   (converged)
  State  6: excitation energy =  11.2509 a.u.   (converged)
  State  7: excitation energy =  11.2981 a.u.   (converged)
  State  8: excitation energy =  11.3017 a.u.   (converged)
  State  9: excitation energy =  11.5156 a.u.   (converged)
  State 10: excitation energy =  11.5667 a.u.   (converged)
  State 11: excitation energy =  11.5674 a.u.   (converged)
  State 12: excitation energy =  11.5686 a.u.   (converged)
  State 13: excitation energy =  11.5832 a.u.   (converged)
  State 14: excitation energy =  11.5840 a.u.   (converged)
  State 15: excitation energy =  11.6064 a.u.   (converged)
  State 16: excitation energy =  11.6379 a.u.   (converged)
  State 17: excitation energy =  12.2228 a.u.   (not converged)
  State 18: excitation energy =  12.2239 a.u.   (not converged)
  State 19: excitation energy =  12.2288 a.u.   (not converged)
 ------------------------------------------------------------


--------------------------------------------------------------------------------
                             Excited State Summary
--------------------------------------------------------------------------------

  Excited state  1 (A)                                             [converged]
  ----------------------------------------------------------------------------
  Term symbol:  2 (-) A                                     R^2 =  4.05033e-14

  Total energy:                                           -425.1092484785 a.u.
  Excitation energy:                                             293.608884 eV

  Osc. strength:                                                      0.000000
  Trans. dip. moment [a.u.]:           [  -0.000002,   -0.000004,    0.000000]
  <i|r^2|0> [a.u.]:                    [   0.000003,   -0.000052,   -0.000001]

  V1^2 = 0.9570, V2^2 = 0.0430

  Important amplitudes:
     core i     occ j      vir a      vir b          v   
    ------------------------------------------------------
     5 (A) A              22 (A) A                -0.6505
     5 (A) B              21 (A) B                 0.6504
    ------------------------------------------------------
  ----------------------------------------------------------------------------


  Excited state  2 (A)                                             [converged]
  ----------------------------------------------------------------------------
  Term symbol:  3 (-) A                                     R^2 =  6.09104e-14

  Total energy:                                           -425.0396929627 a.u.
  Excitation energy:                                             295.501586 eV

  Osc. strength:                                                      0.096463
  Trans. dip. moment [a.u.]:           [   0.039700,    0.102411,   -0.035497]
  <i|r^2|0> [a.u.]:                    [  -0.063659,    1.158985,    0.038036]

  V1^2 = 0.9518, V2^2 = 0.0482

  Important amplitudes:
     core i     occ j      vir a      vir b          v   
    ------------------------------------------------------
     5 (A) B              21 (A) B                 0.6629
     5 (A) A              22 (A) A                 0.6629
    ------------------------------------------------------
  ----------------------------------------------------------------------------


  Excited state  3 (A)                                             [converged]
  ----------------------------------------------------------------------------
  Term symbol:  4 (-) A                                     R^2 =  1.02760e-13

  Total energy:                                           -424.7126728865 a.u.
  Excitation energy:                                             304.400255 eV

  Osc. strength:                                                      0.000000
  Trans. dip. moment [a.u.]:           [  -0.000042,   -0.000116,    0.000046]
  <i|r^2|0> [a.u.]:                    [   0.000115,   -0.001224,   -0.000000]

  V1^2 = 0.9308, V2^2 = 0.0692

  Important amplitudes:
     core i     occ j      vir a      vir b          v   
    ------------------------------------------------------
     5 (A) A              23 (A) A                 0.6054
     5 (A) B              23 (A) B                -0.6017
    ------------------------------------------------------
  ----------------------------------------------------------------------------


  Excited state  4 (A)                                             [converged]
  ----------------------------------------------------------------------------
  Term symbol:  5 (-) A                                     R^2 =  5.28124e-14

  Total energy:                                           -424.7026905583 a.u.
  Excitation energy:                                             304.671888 eV

  Osc. strength:                                                      0.000025
  Trans. dip. moment [a.u.]:           [   0.001503,   -0.000815,   -0.000643]
  <i|r^2|0> [a.u.]:                    [  -0.002688,   -0.009215,    0.000654]

  V1^2 = 0.8517, V2^2 = 0.1483

  Important amplitudes:
     core i     occ j      vir a      vir b          v   
    ------------------------------------------------------
     5 (A) B              22 (A) B                 0.9196
     5 (A) B   13 (A) A   22 (A) A   22 (A) B     -0.0732
    ------------------------------------------------------
  ----------------------------------------------------------------------------


  Excited state  5 (A)                                             [converged]
  ----------------------------------------------------------------------------
  Term symbol:  6 (-) A                                     R^2 =  5.94080e-14

  Total energy:                                           -424.6785299325 a.u.
  Excitation energy:                                             305.329332 eV

  Osc. strength:                                                      0.000000
  Trans. dip. moment [a.u.]:           [   0.000186,   -0.000101,   -0.000079]
  <i|r^2|0> [a.u.]:                    [  -0.000335,   -0.001143,    0.000081]

  V1^2 = 0.9520, V2^2 = 0.0480

  Important amplitudes:
     core i     occ j      vir a      vir b          v   
    ------------------------------------------------------
     5 (A) A              27 (A) A                 0.4867
     5 (A) B              27 (A) B                -0.4816
    ------------------------------------------------------
  ----------------------------------------------------------------------------


  Excited state  6 (A)                                             [converged]
  ----------------------------------------------------------------------------
  Term symbol:  7 (-) A                                     R^2 =  5.64515e-14

  Total energy:                                           -424.6749521372 a.u.
  Excitation energy:                                             305.426688 eV

  Osc. strength:                                                      0.000000
  Trans. dip. moment [a.u.]:           [   0.000006,    0.000007,   -0.000015]
  <i|r^2|0> [a.u.]:                    [  -0.000014,    0.000069,    0.000010]

  V1^2 = 0.9524, V2^2 = 0.0476

  Important amplitudes:
     core i     occ j      vir a      vir b          v   
    ------------------------------------------------------
     5 (A) A              28 (A) A                 0.4879
     5 (A) B              28 (A) B                -0.4878
    ------------------------------------------------------
  ----------------------------------------------------------------------------


  Excited state  7 (A)                                             [converged]
  ----------------------------------------------------------------------------
  Term symbol:  8 (-) A                                     R^2 =  9.49178e-14

  Total energy:                                           -424.6483143378 a.u.
  Excitation energy:                                             306.151540 eV

  Osc. strength:                                                      0.021514
  Trans. dip. moment [a.u.]:           [  -0.017314,   -0.047066,    0.018798]
  <i|r^2|0> [a.u.]:                    [   0.045569,   -0.503239,   -0.002063]

  V1^2 = 0.9202, V2^2 = 0.0798

  Important amplitudes:
     core i     occ j      vir a      vir b          v   
    ------------------------------------------------------
     5 (A) B              23 (A) B                 0.6402
     5 (A) A              23 (A) A                 0.6353
    ------------------------------------------------------
  ----------------------------------------------------------------------------


  Excited state  8 (A)                                             [converged]
  ----------------------------------------------------------------------------
  Term symbol:  9 (-) A                                     R^2 =  9.26140e-14

  Total energy:                                           -424.6010350458 a.u.
  Excitation energy:                                             307.438075 eV

  Osc. strength:                                                      0.115467
  Trans. dip. moment [a.u.]:           [  -0.100328,    0.055276,    0.046999]
  <i|r^2|0> [a.u.]:                    [   0.181975,    0.621577,   -0.047089]

  V1^2 = 0.9431, V2^2 = 0.0569

  Important amplitudes:
     core i     occ j      vir a      vir b          v   
    ------------------------------------------------------
     5 (A) A              24 (A) A                -0.5315
     5 (A) B              24 (A) B                -0.5306
    ------------------------------------------------------
  ----------------------------------------------------------------------------


  Excited state  9 (A)                                             [converged]
  ----------------------------------------------------------------------------
  Term symbol:  10 (-) A                                    R^2 =  9.21429e-14

  Total energy:                                           -424.5975159682 a.u.
  Excitation energy:                                             307.533834 eV

  Osc. strength:                                                      0.115028
  Trans. dip. moment [a.u.]:           [  -0.058910,   -0.015527,   -0.107496]
  <i|r^2|0> [a.u.]:                    [   0.107145,   -0.173123,    0.091980]

  V1^2 = 0.9430, V2^2 = 0.0570

  Important amplitudes:
     core i     occ j      vir a      vir b          v   
    ------------------------------------------------------
     5 (A) A              25 (A) A                -0.5307
     5 (A) B              25 (A) B                -0.5266
    ------------------------------------------------------
  ----------------------------------------------------------------------------


  Excited state 10 (A)                                             [converged]
  ----------------------------------------------------------------------------
  Term symbol:  11 (-) A                                    R^2 =  2.25865e-13

  Total energy:                                           -424.3835540432 a.u.
  Excitation energy:                                             313.356034 eV

  Osc. strength:                                                      0.000000
  Trans. dip. moment [a.u.]:           [   0.000005,    0.000017,   -0.000005]
  <i|r^2|0> [a.u.]:                    [  -0.000008,    0.000189,    0.000005]

  V1^2 = 0.9205, V2^2 = 0.0795

  Important amplitudes:
     core i     occ j      vir a      vir b          v   
    ------------------------------------------------------
     5 (A) B              26 (A) B                -0.5692
     5 (A) A              26 (A) A                 0.5611
    ------------------------------------------------------
  ----------------------------------------------------------------------------


  Excited state 11 (A)                                             [converged]
  ----------------------------------------------------------------------------
  Term symbol:  12 (-) A                                    R^2 =  2.03340e-13

  Total energy:                                           -424.3324851825 a.u.
  Excitation energy:                                             314.745688 eV

  Osc. strength:                                                      0.000142
  Trans. dip. moment [a.u.]:           [  -0.003586,    0.001765,    0.001561]
  <i|r^2|0> [a.u.]:                    [   0.006442,    0.019729,   -0.001520]

  V1^2 = 0.8971, V2^2 = 0.1029

  Important amplitudes:
     core i     occ j      vir a      vir b          v   
    ------------------------------------------------------
     5 (A) A              27 (A) A                -0.5081
     5 (A) A              24 (A) A                 0.4930
    ------------------------------------------------------
  ----------------------------------------------------------------------------


  Excited state 12 (A)                                             [converged]
  ----------------------------------------------------------------------------
  Term symbol:  13 (-) A                                    R^2 =  2.65491e-13

  Total energy:                                           -424.3318138390 a.u.
  Excitation energy:                                             314.763956 eV

  Osc. strength:                                                      0.000019
  Trans. dip. moment [a.u.]:           [  -0.000705,   -0.001398,    0.000246]
  <i|r^2|0> [a.u.]:                    [   0.000793,   -0.016176,   -0.000689]

  V1^2 = 0.8973, V2^2 = 0.1027

  Important amplitudes:
     core i     occ j      vir a      vir b          v   
    ------------------------------------------------------
     5 (A) A              28 (A) A                -0.4733
     5 (A) A              25 (A) A                 0.4706
    ------------------------------------------------------
  ----------------------------------------------------------------------------


  Excited state 13 (A)                                             [converged]
  ----------------------------------------------------------------------------
  Term symbol:  14 (-) A                                    R^2 =  1.81015e-13

  Total energy:                                           -424.3305947226 a.u.
  Excitation energy:                                             314.797130 eV

  Osc. strength:                                                      0.024647
  Trans. dip. moment [a.u.]:           [   0.020581,    0.050360,   -0.015364]
  <i|r^2|0> [a.u.]:                    [  -0.017745,    0.585065,    0.032397]

  V1^2 = 0.9183, V2^2 = 0.0817

  Important amplitudes:
     core i     occ j      vir a      vir b          v   
    ------------------------------------------------------
     5 (A) A              26 (A) A                -0.6384
     5 (A) B              26 (A) B                -0.6331
    ------------------------------------------------------
  ----------------------------------------------------------------------------


  Excited state 14 (A)                                             [converged]
  ----------------------------------------------------------------------------
  Term symbol:  15 (-) A                                    R^2 =  1.88112e-13

  Total energy:                                           -424.3160158375 a.u.
  Excitation energy:                                             315.193842 eV

  Osc. strength:                                                      0.032526
  Trans. dip. moment [a.u.]:           [  -0.052804,    0.028896,    0.024264]
  <i|r^2|0> [a.u.]:                    [   0.095544,    0.323701,   -0.022716]

  V1^2 = 0.9008, V2^2 = 0.0992

  Important amplitudes:
     core i     occ j      vir a      vir b          v   
    ------------------------------------------------------
     5 (A) B              27 (A) B                -0.5609
     5 (A) A              27 (A) A                -0.4974
    ------------------------------------------------------
  ----------------------------------------------------------------------------


  Excited state 15 (A)                                             [converged]
  ----------------------------------------------------------------------------
  Term symbol:  16 (-) A                                    R^2 =  1.66891e-13

  Total energy:                                           -424.3151826064 a.u.
  Excitation energy:                                             315.216515 eV

  Osc. strength:                                                      0.033048
  Trans. dip. moment [a.u.]:           [  -0.030509,   -0.007580,   -0.057368]
  <i|r^2|0> [a.u.]:                    [   0.056720,   -0.082924,    0.050680]

  V1^2 = 0.9012, V2^2 = 0.0988

  Important amplitudes:
     core i     occ j      vir a      vir b          v   
    ------------------------------------------------------
     5 (A) B              28 (A) B                -0.5294
     5 (A) A              28 (A) A                -0.5259
    ------------------------------------------------------
  ----------------------------------------------------------------------------


  Excited state 16 (A)                                             [converged]
  ----------------------------------------------------------------------------
  Term symbol:  17 (-) A                                    R^2 =  1.64035e-13

  Total energy:                                           -424.2928061980 a.u.
  Excitation energy:                                             315.825408 eV

  Osc. strength:                                                      0.000054
  Trans. dip. moment [a.u.]:           [   0.000780,    0.002299,   -0.001027]
  <i|r^2|0> [a.u.]:                    [  -0.003276,    0.023841,   -0.000984]

  V1^2 = 0.8975, V2^2 = 0.1025

  Important amplitudes:
     core i     occ j      vir a      vir b          v   
    ------------------------------------------------------
     5 (A) A              29 (A) A                -0.5770
     5 (A) B              29 (A) B                 0.4721
    ------------------------------------------------------
  ----------------------------------------------------------------------------


  Excited state 17 (A)                                             [converged]
  ----------------------------------------------------------------------------
  Term symbol:  18 (-) A                                    R^2 =  6.35944e-13

  Total energy:                                           -424.2613131748 a.u.
  Excitation energy:                                             316.682377 eV

  Osc. strength:                                                      0.013298
  Trans. dip. moment [a.u.]:           [   0.013144,    0.036465,   -0.014545]
  <i|r^2|0> [a.u.]:                    [  -0.040453,    0.391791,   -0.004289]

  V1^2 = 0.9012, V2^2 = 0.0988

  Important amplitudes:
     core i     occ j      vir a      vir b          v   
    ------------------------------------------------------
     5 (A) B              29 (A) B                -0.6608
     5 (A) A              29 (A) A                -0.5622
    ------------------------------------------------------
  ----------------------------------------------------------------------------


  Excited state 18 (A)                                         [not converged]
  ----------------------------------------------------------------------------
  Term symbol:  19 (-) A                                    R^2 =  2.50525e-05

  Total energy:                                           -423.6763459765 a.u.
  Excitation energy:                                             332.600144 eV


  V1^2 = 0.8705, V2^2 = 0.1295

  Important amplitudes:
     core i     occ j      vir a      vir b          v   
    ------------------------------------------------------
     5 (A) B              31 (A) B                 0.6171
     5 (A) A              32 (A) A                -0.6148
    ------------------------------------------------------
  ----------------------------------------------------------------------------


  Excited state 19 (A)                                         [not converged]
  ----------------------------------------------------------------------------
  Term symbol:  20 (-) A                                    R^2 =  4.76802e-04

  Total energy:                                           -423.6752848366 a.u.
  Excitation energy:                                             332.629019 eV


  V1^2 = 0.8701, V2^2 = 0.1299

  Important amplitudes:
     core i     occ j      vir a      vir b          v   
    ------------------------------------------------------
     5 (A) B              32 (A) B                -0.6294
     5 (A) A              31 (A) A                -0.5890
    ------------------------------------------------------
  ----------------------------------------------------------------------------


  Excited state 20 (A)                                         [not converged]
  ----------------------------------------------------------------------------
  Term symbol:  21 (-) A                                    R^2 =  1.55249e-04

  Total energy:                                           -423.6704190122 a.u.
  Excitation energy:                                             332.761425 eV


  V1^2 = 0.8698, V2^2 = 0.1302

  Important amplitudes:
     core i     occ j      vir a      vir b          v   
    ------------------------------------------------------
     5 (A) B              31 (A) B                -0.6035
     5 (A) A              32 (A) A                -0.6030
    ------------------------------------------------------
  ----------------------------------------------------------------------------


--------------------------------------------------------------------------------
  Time of ADC calculation:  CPU 1489.43 s  wall 1511.93 s
================================================================================
 
 --------------------------------------------------------------
 
                    Orbital Energies (a.u.)
 --------------------------------------------------------------
 
 Alpha MOs
 -- Occupied --
-26.743 -26.742 -26.742 -26.611 -11.951  -2.174  -2.061  -2.059
 -1.863  -1.323  -1.239  -1.239  -1.189  -1.071  -1.071  -1.043
 -1.040  -1.025  -1.017  -0.924  -0.921
 -- Virtual --
 -0.243   0.097   0.182   0.184   0.358   0.408   0.412   0.444
  0.957   1.010   1.012   1.023   1.057   1.074   1.177   1.214
  1.262   1.289   1.290   1.312   1.331   1.340   1.395   1.512
  1.652   1.654   1.742   1.746   1.785   1.817   1.833   1.843
  1.862   1.881   1.906   1.940   1.946   2.003   2.004   2.095
  2.402   2.618   2.636   2.642   2.964   2.967   3.196   3.197
  3.288   3.675   4.288   4.644   4.652   5.783
 
 Beta MOs
 -- Occupied --
-26.743 -26.742 -26.742 -26.563 -11.951  -2.174  -2.061  -2.059
 -1.671  -1.323  -1.239  -1.239  -1.188  -1.071  -1.070  -1.040
 -1.039  -1.017  -0.871  -0.869
 -- Virtual --
 -0.243  -0.111   0.099   0.184   0.185   0.360   0.409   0.412
  0.448   0.974   1.012   1.012   1.036   1.078   1.087   1.225
  1.255   1.269   1.290   1.290   1.312   1.350   1.400   1.439
  1.524   1.654   1.655   1.747   1.750   1.785   1.845   1.850
  1.864   1.939   1.946   1.947   1.954   1.966   2.004   2.011
  2.095   2.404   2.625   2.636   2.642   2.964   2.967   3.196
  3.197   3.292   3.710   4.288   4.644   4.652   5.786
 --------------------------------------------------------------
 
          Ground-State Mulliken Net Atomic Charges

     Atom                 Charge (a.u.)    Spin (a.u.)
  --------------------------------------------------------
      1 C                     1.245641      -0.005242
      2 F                    -0.091294       0.000501
      3 F                    -0.091377       0.000485
      4 F                     0.021960       1.004097
      5 F                    -0.084929       0.000158
  --------------------------------------------------------
  Sum of atomic charges =     1.000000
  Sum of spin   charges =     1.000000

 -----------------------------------------------------------------
                    Cartesian Multipole Moments
 -----------------------------------------------------------------
    Charge (ESU x 10^10)
                 4.8032
    Dipole Moment (Debye)
         X      -2.2817      Y      14.1931      Z      -1.1088
       Tot      14.4180
    Quadrupole Moments (Debye-Ang)
        XX     -19.3088     XY      -6.4843     YY      22.4123
        XZ       0.0875     YZ      -3.6958     ZZ     -20.5893
    Octopole Moments (Debye-Ang^2)
       XXX      41.5902    XXY     -46.0226    XYY      -4.0118
       YYY     -14.7057    XXZ       1.1771    XYZ       0.6485
       YYZ     -11.8857    XZZ      13.3382    YZZ     -48.2641
       ZZZ       0.0691
    Hexadecapole Moments (Debye-Ang^3)
      XXXX    -129.4601   XXXY      90.2496   XXYY    -152.5141
      XYYY      39.1029   YYYY    -408.4131   XXXZ       1.1745
      XXYZ       5.7220   XYYZ       3.5078   YYYZ     -26.4613
      XXZZ     -32.6430   XYZZ      28.2886   YYZZ    -146.3826
      XZZZ       3.9769   YZZZ      12.5426   ZZZZ     -75.5737
 -----------------------------------------------------------------
Archival summary:
1\1\tp-linux1\SP\HF\6-31G*\41(1+,2)\thomas\WedMar2221:17:172017WedMar2221:17:172017\0\\#,HF,6-31G*,\\1,2\C\F,1,1.215\F,1,1.21842,2,117.275\F,1,1.21857,2,117.273,3,147.205,0\F,1,2.62041,2,82.2497,3,73.5143,0\\HF=-435.156049\\@

 Total job time:  1531.29s(wall), 1503.94s(cpu) 
 Wed Mar 22 21:17:17 2017

        *************************************************************
        *                                                           *
        *  Thank you very much for using Q-Chem.  Have a nice day.  *
        *                                                           *
        *************************************************************


0 sent ACK to 0 
now end server 0 ... 
cleanup process ... done
