
Running Job 1 of 1 ddtraj1t49.inp
qchem ddtraj1t49.inp_19724.0 /scratch/qchem/qchem19724/ 1
/mnt/software/qchem/bin/mpi/mpirun_qchem -machinefile /mnt/software/qchem/bin/mpi/machines -np 1 /mnt/software/qchem/exe/qcprog.exe ddtraj1t49.inp_19724.0 /scratch/qchem/qchem19724/

Process 0 of 1 is on tp-linux1 - thread support 0
initial socket setup ...start
initial socket setup ...done 
now start server 0 ... 

cmd = ssh tp-linux1 /mnt/software/qchem/bin/get_hostid 1717040337 > /scratch/qchem/qchem19724/lic.dat
                  Welcome to Q-Chem
     A Quantum Leap Into The Future Of Chemistry


 Q-Chem 4.3, Q-Chem, Inc., Pleasanton, CA (2015)

 Y. Shao,  Z. Gan,  E. Epifanovsky,  A. T. B. Gilbert,  M. Wormit,  
 J. Kussmann,  A. W. Lange,  A. Behn,  J. Deng,  X. Feng,  D. Ghosh,  
 M. Goldey,  P. R. Horn,  L. D. Jacobson,  I. Kaliman,  R. Z. Khaliullin,  
 T. Kus,  A. Landau,  J. Liu,  E. I. Proynov,  Y. M. Rhee,  R. M. Richard,  
 M. A. Rohrdanz,  R. P. Steele,  E. J. Sundstrom,  H. L. Woodcock III,  
 P. M. Zimmerman,  D. Zuev,  B. Albrecht,  E. Alguire,  B. Austin,  
 S. A. Baeppler,  G. J. O. Beran,  Y. A. Bernard,  E. Berquist,  
 K. Brandhorst,  K. B. Bravaya,  S. T. Brown,  D. Casanova,  C.-M. Chang,  
 Y. Chen,  S. H. Chien,  K. D. Closser,  D. L. Crittenden,  M. Diedenhofen,  
 R. A. DiStasio Jr.,  H. Do,  A. D. Dutoi,  R. G. Edgar,  P.-T. Fang,  
 S. Fatehi,  Q. Feng,  L. Fusti-Molnar,  A. Ghysels,  
 A. Golubeva-Zadorozhnaya,  J. Gomes,  A. Gunina,  M. W. D. Hanson-Heine,  
 P. H. P. Harbach,  A. W. Hauser,  E. G. Hohenstein,  Z. C. Holden,  K. Hui,  
 T.-C. Jagau,  H. Ji,  B. Kaduk,  K. Khistyaev,  Jaehoon Kim,  Jihan Kim,  
 R. A. King,  P. Klunzinger,  D. Kosenkov,  T. Kowalczyk,  C. M. Krauter,  
 K. U. Lao,  A. Laurent,  K. V. Lawler,  S. Lehtola,  S. V. Levchenko,  
 C. Y. Lin,  Y.-S. Lin,  F. Liu,  E. Livshits,  R. C. Lochan,  A. Luenser,  
 P. Manohar,  S. F. Manzer,  S.-P. Mao,  N. Mardirossian,  A. V. Marenich,  
 L. A. Martinez-Martinez,  S. A. Maurer,  N. J. Mayhall,  K. Nanda,  
 C. M. Oana,  R. Olivares-Amaya,  D. P. O'Neill,  J. A. Parkhill,  
 T. M. Perrine,  R. Peverati,  P. A. Pieniazek,  F. Plasser,  A. Prociuk,  
 D. R. Rehn,  E. Rosta,  N. J. Russ,  N. Sergueev,  S. M. Sharada,  
 S. Sharma,  D. W. Small,  A. Sodt,  T. Stauch,  T. Stein,  D. Stuck,  
 Y.-C. Su,  A. J. W. Thom,  T. Tsuchimochi,  L. Vogt,  O. Vydrov,  T. Wang,  
 M. A. Watson,  J. Wenzel,  A. White,  C. F. Williams,  V. Vanovschi,  
 S. Yeganeh,  S. R. Yost,  Z.-Q. You,  I. Y. Zhang,  X. Zhang,  Y. Zhao,  
 B. R. Brooks,  G. K. L. Chan,  D. M. Chipman,  C. J. Cramer,  
 W. A. Goddard III,  M. S. Gordon,  W. J. Hehre,  A. Klamt,  
 H. F. Schaefer III,  M. W. Schmidt,  C. D. Sherrill,  D. G. Truhlar,  
 A. Warshel,  X. Xu,  A. Aspuru-Guzik,  R. Baer,  A. T. Bell,  N. A. Besley,  
 J.-D. Chai,  A. Dreuw,  B. D. Dunietz,  T. R. Furlani,  S. R. Gwaltney,  
 C.-P. Hsu,  Y. Jung,  J. Kong,  D. S. Lambrecht,  W. Liang,  C. Ochsenfeld,  
 V. A. Rassolov,  L. V. Slipchenko,  J. E. Subotnik,  T. Van Voorhis,  
 J. M. Herbert,  A. I. Krylov,  P. M. W. Gill,  M. Head-Gordon

 Contributors to earlier versions of Q-Chem not listed above: 
 R. D. Adamson,  J. Baker,  E. F. C. Byrd,  A. K. Chakraborty,  C.-L. Cheng,  
 H. Dachsel,  R. J. Doerksen,  G. Hawkins,  A. Heyden,  S. Hirata,  
 G. Kedziora,  F. J. Keil,  C. Kelley,  P. P. Korambath,  W. Kurlancheek,  
 A. M. Lee,  M. S. Lee,  D. Liotard,  I. Lotan,  P. E. Maslen,  N. Nair,  
 D. Neuhauser,  R. Olson,  B. Peters,  J. Ritchie,  N. E. Schultz,  
 N. Shenvi,  A. C. Simmonett,  K. S. Thanthiriwatte,  Q. Wu,  W. Zhang

 Please cite Q-Chem as follows:
 Y. Shao et al., Mol. Phys. 113, 184-215 (2015)
 DOI: 10.1080/00268976.2014.952696

 Q-Chem 4.3.0 for Intel X86 Linux

 Parts of Q-Chem use Armadillo 5.200.1 (Boston Tea Smuggler).
 http://arma.sourceforge.net/

 Q-Chem begins on Wed Mar 22 20:06:16 2017  

Host: 
0

     Scratch files written to /scratch/qchem/qchem19724//
 Nov1815 1189b_ 19540  19532 5443   
 Parallel job on  1  processors
Processing $rem in /mnt/software/qchem/config/preferences.
 MEM_TOTAL  2000 

Checking the input file for inconsistencies... 	...done.

--------------------------------------------------------------
User input:
--------------------------------------------------------------
$comment
XAS calculation for valence excited states for CF4+ using cvs-adc(2) + 6-31G* basis set
job 1 - determination of HF orbitals
$end

$molecule
1 2
6  -0.443927  3.050266  -0.274651
9  0.670114  2.612505  -0.113217
9  -1.033814  3.541691  0.657363
9  -1.585994  -0.078929  0.94907
9  -1.008985  2.880906  -1.319739
$end

$comment
cvs-adc(2) calculation
$end

$rem
mem_total 3000
mem_static 1500
sym_ignore true
method cvs-adc(2)
basis 6-31G*
ee_singlets 20
cc_rest_occ 5                  !only excitations from the lowest N orbitals
unrestricted  true
max_scf_cycles 200
SCF_ALGORITHM = DIIS_GDM
SCF_CONVERGENCE = 7
THRESH = 10
$end
--------------------------------------------------------------
 ----------------------------------------------------------------
             Standard Nuclear Orientation (Angstroms)
    I     Atom           X                Y                Z
 ----------------------------------------------------------------
    1      C      -0.4439270000     3.0502660000    -0.2746510000
    2      F       0.6701140000     2.6125050000    -0.1132170000
    3      F      -1.0338140000     3.5416910000     0.6573630000
    4      F      -1.5859940000    -0.0789290000     0.9490700000
    5      F      -1.0089850000     2.8809060000    -1.3197390000
 ----------------------------------------------------------------
 Nuclear Repulsion Energy =   175.5397019272 hartrees
 There are       21 alpha and       20 beta electrons
 Requested basis set is 6-31G(d)
 There are 20 shells and 75 basis functions

 Total QAlloc Memory Limit   3000 MB
 Mega-Array Size      1467 MB
 MEM_STATIC part      1500 MB

                       Distance Matrix (Angstroms)
             C (  1)   F (  2)   F (  3)   F (  4)
   F (  2)  1.207801
   F (  3)  1.207524  2.088193
   F (  4)  3.548756  3.669100  3.674083
   F (  5)  1.200076  2.084972  2.084751  3.773732
 
 tim1(1): 
  0.000000000000000E+000
 tim1(2): 
  0.000000000000000E+000
 A cutoff of  1.0D-10 yielded    178 shell pairs
 There are      2706 function pairs
 
 -------------------------------------------------------
 OpenMP Integral Computing Module                       
 Release: version 1.0, May 2013, Q-Chem Inc. Pittsburgh 
 -------------------------------------------------------
 Integral Job Info:
 Integral job number is                      11
 Integral operator is                         1
 short-range coefficients                     0
 long-range coefficients              100000000
 Omega coefficients                           0
 if combine SR and LR in K                    0
 Integral screening is                        0
 Integral computing path is                   2
 max size of driver memory is            800000
 size of driver memory is                593474
 size of scratch memory is              2260544
 max col of scratch BK array               1296
 max len of scratch array in speh3          155
 max len of scratch index in speh4           18
 max int batch size is                      520
 min int batch size is                       52
 fixed nKL is                                52
 max L of basis functions is                  2
 order of int derivative is                   0
 number of shells is                         20
 number of basis is                          75
 number of cartesian basis is                75
 number of contracted shell pairs           178
 number of primitive shell pairs            920
 maxK2 (contraction) of shell pair           36
 max number of K2 of shell pair               1
 max number of CS2 of shell pair             31
 max number of PS2 of shell pair            186
 mem total for path MDJ                   17476
 -------------------------------------------------------
 Smallest overlap matrix eigenvalue = 3.85E-03

 Scale SEOQF with 1.000000e-01/1.000000e-01/1.000000e+00

 Standard Electronic Orientation quadrupole field applied
 Nucleus-field energy     =    -0.0000000068 hartrees
 Guess from superposition of atomic densities
 Warning:  Energy on first SCF cycle will be non-variational
 An unrestricted Hartree-Fock SCF calculation will be
 performed using Pulay DIIS + Geometric Direct Minimization
 SCF converges when RMS gradient is below 1.0E-07
 ---------------------------------------
  Cycle       Energy         DIIS Error
 ---------------------------------------
    1    -436.5211425730      9.52E-02
    2    -434.9980428032      1.75E-02
    3    -435.1457470751      7.84E-03 Done DIIS. Switching to GDM
    4    -435.1737129623      1.02E-02 Normal BFGS step
    5    -435.1745928287      8.30E-03 Normal BFGS step
    6    -435.1748858381      1.60E-03 Normal BFGS step
    7    -435.1749034670      1.11E-03 Normal BFGS step
    8    -435.1749068036      1.10E-03 Normal BFGS step
    9    -435.1749094148      1.09E-03 Normal BFGS step
   10    -435.1749154156      1.05E-03 Normal BFGS step
   11    -435.1749279714      1.39E-03 Normal BFGS step
   12    -435.1749546396      2.10E-03 Normal BFGS step
   13    -435.1749950404      2.34E-03 Normal BFGS step
   14    -435.1750292674      1.56E-03 Normal BFGS step
   15    -435.1750427054      4.28E-04 Normal BFGS step
   16    -435.1750439199      1.64E-04 Normal BFGS step
   17    -435.1750440230      6.57E-05 Normal BFGS step
   18    -435.1750440400      7.92E-06 Normal BFGS step
   19    -435.1750440404      2.04E-06 Normal BFGS step
   20    -435.1750440405      1.05E-06 Normal BFGS step
   21    -435.1750440405      1.05E-06 Normal BFGS step
   22    -435.1750440405      1.05E-06 Normal BFGS step
   23    -435.1750440405      1.05E-06 Normal BFGS step
   24    -435.1750440405      1.16E-06 Normal BFGS step
   25    -435.1750440405      2.12E-06 Normal BFGS step
   26    -435.1750440406      3.59E-06 Normal BFGS step
   27    -435.1750440409      5.83E-06 Normal BFGS step
   28    -435.1750440415      9.31E-06 Normal BFGS step
   29    -435.1750440430      1.54E-05 Normal BFGS step
   30    -435.1750440469      2.64E-05 Normal BFGS step
   31    -435.1750440561      4.44E-05 Normal BFGS step
   32    -435.1750440668      6.82E-05 Normal BFGS step
   33    -435.1750440922      6.01E-05 Normal BFGS step
   34    -435.1750441490      8.85E-05 Normal BFGS step
   35    -435.1750441182      1.12E-04 Line search: overstep
   36    -435.1750441549      3.52E-05 Normal BFGS step
   37    -435.1750441740      7.18E-05 Normal BFGS step
   38    -435.1750441925      1.04E-04 Normal BFGS step
   39    -435.1750442343      7.15E-05 Normal BFGS step
   40    -435.1750442697      6.61E-05 Normal BFGS step
   41    -435.1750443178      3.87E-05 Normal BFGS step
   42    -435.1750233041      2.40E-03 Line search: overstep
   43    -435.1750443349      9.17E-05 Normal BFGS step
   44    -435.1750443684      9.25E-05 Normal BFGS step
   45    -435.1750444186      2.31E-05 Normal BFGS step
   46    -435.1750439097      4.04E-04 Line search: overstep
   47    -435.1750444282      2.84E-05 Normal BFGS step
   48    -435.1750443852      1.77E-04 Line search: overstep
   49    -435.1750444453      6.81E-05 Normal BFGS step
   50    -435.1750444581      1.61E-04 Normal BFGS step
   51    -435.1750444910      6.94E-05 Normal BFGS step
   52    -435.1750445262      3.00E-05 Normal BFGS step
   53    -435.1750445501      1.74E-04 Normal BFGS step
   54    -435.1750445904      1.83E-05 Normal BFGS step
   55    -435.1750446282      3.00E-05 Normal BFGS step
   56    -435.1750407895      1.07E-03 Line search: overstep
   57    -435.1750446497      6.34E-05 Normal BFGS step
   58    -435.1750446125      1.89E-04 Line search: overstep
   59    -435.1750446725      1.02E-04 Normal BFGS step
   60    -435.1750447058      1.28E-04 Normal BFGS step
   61    -435.1750447560      4.54E-05 Normal BFGS step
   62    -435.1750447652      2.05E-04 Normal BFGS step
   63    -435.1750448235      1.26E-05 Normal BFGS step
   64    -435.1750448534      2.35E-05 Normal BFGS step
   65    -435.1750443352      4.25E-04 Line search: overstep
   66    -435.1750448638      4.16E-05 Normal BFGS step
   67    -435.1750448553      1.41E-04 Line search: overstep
   68    -435.1750448810      8.06E-05 Normal BFGS step
   69    -435.1750448965      9.08E-05 Normal BFGS step
   70    -435.1750449236      4.07E-05 Normal BFGS step
   71    -435.1750449369      9.12E-05 Normal BFGS step
   72    -435.1750449538      2.27E-05 Normal BFGS step
   73    -435.1750449614      3.67E-05 Normal BFGS step
   74    -435.1750449669      3.68E-05 Normal BFGS step
   75    -435.1750449790      2.96E-05 Normal BFGS step
   76    -435.1750449665      8.75E-05 Line search: overstep
   77    -435.1750449830      3.11E-05 Normal BFGS step
   78    -435.1750449895      6.70E-05 Normal BFGS step
   79    -435.1750450050      3.41E-05 Normal BFGS step
   80    -435.1750450444      5.23E-05 Normal BFGS step
   81    -435.1750450751      1.81E-04 Normal BFGS step
   82    -435.1750451736      9.02E-05 Normal BFGS step
   83    -435.1750452124      2.21E-04 Normal BFGS step
   84    -435.1750452675      3.73E-05 Normal BFGS step
   85    -435.1750453089      2.08E-05 Normal BFGS step
   86    -435.1750451883      2.39E-04 Line search: overstep
   87    -435.1750453302      4.99E-05 Normal BFGS step
   88    -435.1750453467      9.64E-05 Normal BFGS step
   89    -435.1750453595      4.18E-05 Normal BFGS step
   90    -435.1750453655      2.05E-05 Normal BFGS step
   91    -435.1750453667      1.78E-05 Normal BFGS step
   92    -435.1750453680      1.47E-05 Normal BFGS step
   93    -435.1750453699      1.41E-05 Normal BFGS step
   94    -435.1750453741      3.34E-05 Normal BFGS step
   95    -435.1750453830      5.95E-05 Normal BFGS step
   96    -435.1750454000      9.03E-05 Normal BFGS step
   97    -435.1750454244      1.01E-04 Normal BFGS step
   98    -435.1750450612      3.40E-04 Line search: overstep
   99    -435.1750454306      9.79E-05 Normal BFGS step
  100    -435.1750454578      1.10E-04 Normal BFGS step
  101    -435.1750454682      3.07E-05 Normal BFGS step
  102    -435.1750454779      2.08E-05 Normal BFGS step
  103    -435.1750454840      6.53E-05 Normal BFGS step
  104    -435.1750454901      5.46E-05 Normal BFGS step
  105    -435.1750455079      4.47E-05 Normal BFGS step
  106    -435.1750455219      1.34E-05 Normal BFGS step
  107    -435.1750450867      3.66E-04 Line search: overstep
  108    -435.1750455267      2.46E-05 Normal BFGS step
  109    -435.1750455009      1.27E-04 Line search: overstep
  110    -435.1750455346      4.34E-05 Normal BFGS step
  111    -435.1750455434      8.80E-05 Normal BFGS step
  112    -435.1750455550      1.50E-05 Normal BFGS step
  113    -435.1750455619      2.05E-05 Normal BFGS step
  114    -435.1750455511      9.67E-05 Line search: overstep
  115    -435.1750455673      3.76E-05 Normal BFGS step
  116    -435.1750455743      5.93E-05 Normal BFGS step
  117    -435.1750455823      1.23E-05 Normal BFGS step
  118    -435.1750455897      3.36E-05 Normal BFGS step
  119    -435.1750455951      4.24E-05 Normal BFGS step
  120    -435.1750455977      1.99E-05 Normal BFGS step
  121    -435.1750456032      2.80E-05 Normal BFGS step
  122    -435.1750456055      2.14E-05 Normal BFGS step
  123    -435.1750456086      2.67E-05 Normal BFGS step
  124    -435.1750456093      2.43E-05 Normal BFGS step
  125    -435.1750456127      2.51E-05 Normal BFGS step
  126    -435.1750456140      6.25E-06 Normal BFGS step
  127    -435.1750456154      9.54E-06 Normal BFGS step
  128    -435.1750456163      2.62E-05 Normal BFGS step
  129    -435.1750456174      4.65E-06 Normal BFGS step
  130    -435.1750456182      4.52E-06 Normal BFGS step
  131    -435.1750456185      1.81E-05 Normal BFGS step
  132    -435.1750456190      2.21E-06 Normal BFGS step
  133    -435.1750456193      1.52E-06 Normal BFGS step
  134    -435.1750456194      1.01E-05 Normal BFGS step
  135    -435.1750456196      1.23E-06 Normal BFGS step
  136    -435.1750456196      1.08E-06 Normal BFGS step
  137    -435.1750456197      1.89E-06 Normal BFGS step
  138    -435.1750456197      3.27E-07 Normal BFGS step
  139    -435.1750456197      1.35E-07 Normal BFGS step
   GDM::WARNING energy changes are now smaller than effective accuracy.
   GDM::        calculation will continue, but THRESH should be increased
   GDM::        or SCF_CONVERGENCE decreased.
   GDM::        effective_thresh =   1.780790959138301E-009
  140    -435.1750456197      8.70E-08 Convergence criterion met
 ---------------------------------------
 <S^2> = 0.7527
 SCF time:  CPU 21.28 s  wall 35.29 s
 SCF   energy in the final basis set = -435.1750456197
 Total energy in the final basis set = -435.1750456197
================================================================================
|                                                                              |
|                                 A D C  M A N                                 |
|                                                                              |
 ------------------------------------------------------------------------------ 
|                                                                              |
| Components:                                                                  |
|                                                                              |
| - libvmm - 1.2-release                                                       |
|   Authors:                                                                   |
|   Evgeny Epifanovsky, Ilya Kaliman                                           |
|                                                                              |
| - libtensor - 2.4-trunk                                                      |
|   Authors:                                                                   |
|   Evgeny Epifanovsky, Michael Wormit, Dmitry Zuev, Sam Manzer                |
|                                                                              |
| - libwfa - 1.1-beta                                                          |
|   Authors:                                                                   |
|   Felix Plasser, Stefanie Baeppler, Benjamin Thomitzni, Michael Wormit       |
|                                                                              |
| - libadc - 1.0-beta                                                          |
|   Authors:                                                                   |
|   Michael Wormit, Philipp H. P. Harbach, Caroline Krauter, Dirk Rehn,        |
|   Matthias Schneider, Jan Wenzel                                             |
|                                                                              |
| - adcman - 2.4-beta                                                          |
|   Authors:                                                                   |
|   Michael Wormit, Philipp H. P. Harbach, Caroline Krauter, Dirk Rehn,        |
|   Jan Wenzel, Andreas Dreuw                                                  |
|                                                                              |
| Authors of earlier versions of ADCMAN:                                       |
| Andreas Dreuw, Jan Hendrik Starcke, Dirk Rehn, Michael Wormit                |
|                                                                              |
================================================================================

 
 Alpha MOs, Unrestricted
 -- Occupied --                  
-26.753 -26.749 -26.749 -26.555 -11.950  -2.186  -2.079  -2.074
  1 A     2 A     3 A     4 A     5 A     6 A     7 A     8 A                  
 -1.807  -1.329  -1.252  -1.252  -1.200  -1.079  -1.079  -1.053
  9 A    10 A    11 A    12 A    13 A    14 A    15 A    16 A                  
 -1.050  -1.026  -0.975  -0.869  -0.867
 17 A    18 A    19 A    20 A    21 A                                          
 -- Virtual --                   
 -0.184   0.000   0.212   0.214   0.330   0.418   0.423   0.432
 22 A    23 A    24 A    25 A    26 A    27 A    28 A    29 A                  
  0.923   1.000   1.008   1.010   1.132   1.133   1.215   1.258
 30 A    31 A    32 A    33 A    34 A    35 A    36 A    37 A                  
  1.261   1.262   1.283   1.286   1.288   1.305   1.352   1.419
 38 A    39 A    40 A    41 A    42 A    43 A    44 A    45 A                  
  1.634   1.636   1.747   1.748   1.780   1.861   1.893   1.900
 46 A    47 A    48 A    49 A    50 A    51 A    52 A    53 A                  
  1.908   1.908   1.921   1.961   1.963   1.965   1.971   2.067
 54 A    55 A    56 A    57 A    58 A    59 A    60 A    61 A                  
  2.145   2.255   2.699   2.706   3.028   3.038   3.233   3.250
 62 A    63 A    64 A    65 A    66 A    67 A    68 A    69 A                  
  3.253   3.565   4.178   4.681   4.919   4.940
 70 A    71 A    72 A    73 A    74 A    75 A                                  
 
 Beta MOs, Unrestricted
 -- Occupied --                  
-26.753 -26.749 -26.749 -26.507 -11.950  -2.186  -2.079  -2.074
  1 A     2 A     3 A     4 A     5 A     6 A     7 A     8 A                  
 -1.615  -1.329  -1.252  -1.252  -1.200  -1.079  -1.079  -1.053
  9 A    10 A    11 A    12 A    13 A    14 A    15 A    16 A                  
 -1.050  -1.026  -0.817  -0.815
 17 A    18 A    19 A    20 A                                                  
 -- Virtual --                   
 -0.184  -0.057   0.000   0.213   0.214   0.330   0.418   0.423
 21 A    22 A    23 A    24 A    25 A    26 A    27 A    28 A                  
  0.432   0.954   1.000   1.008   1.010   1.132   1.133   1.260
 29 A    30 A    31 A    32 A    33 A    34 A    35 A    36 A                  
  1.261   1.281   1.286   1.287   1.305   1.309   1.352   1.424
 37 A    38 A    39 A    40 A    41 A    42 A    43 A    44 A                  
  1.438   1.634   1.636   1.747   1.748   1.780   1.870   1.907
 45 A    46 A    47 A    48 A    49 A    50 A    51 A    52 A                  
  1.907   1.963   1.963   1.970   1.976   1.997   1.997   2.010
 53 A    54 A    55 A    56 A    57 A    58 A    59 A    60 A                  
  2.067   2.146   2.255   2.699   2.706   3.028   3.038   3.233
 61 A    62 A    63 A    64 A    65 A    66 A    67 A    68 A                  
  3.250   3.253   3.607   4.178   4.681   4.919   4.940
 69 A    70 A    71 A    72 A    73 A    74 A    75 A                          
 

--------------------------------------------------------------------------------
                                   HF Summary                                   
--------------------------------------------------------------------------------
  Energy:                                                 -435.1750456197 a.u.
  Dip. moment [a.u.]:                  [ -54.498096,  181.173323,    0.354376]
  Total dipole [Debye]:                                             480.880393
  <r^2> [a.u.]:                        [ 180.945774, 1070.716569,  116.011019]
  Total <r^2> [a.u.]:                                              1367.673362
--------------------------------------------------------------------------------

--------------------------------------------------------------------------------
                                 MP(2) Summary                                  
--------------------------------------------------------------------------------
  Energy contribution:                                      -0.7364172712 a.u.
  Total energy:                                           -435.9114628909 a.u.
  Dip. moment [a.u.]:                  [ -54.487598,  181.201977,    0.343178]
  Total dipole [Debye]:                                             480.942400
  <r^2> [a.u.]:                        [ 180.713036, 1071.206171,  115.789819]
  Total <r^2> [a.u.]:                                              1367.709025
--------------------------------------------------------------------------------
  Starting Davidson ... 
--------------------------------------------------------------------------------
   It NVec Conv  Avg. Norm  Max. Norm  Conv. states           Remark
--------------------------------------------------------------------------------
        20    0  2.092e-01  1.152e+00 10.9816 n n n n n n n n Guess.
    1   40    0  5.582e-02  8.402e-01 10.8264 n n n n n n n n 
    2   60    0  8.309e-03  9.832e-02 10.8250 n n n n n n n n 
    3   80    0  2.408e-03  2.960e-02 10.8250 n n n n n n n n 
    4  100    0  1.008e-03  1.424e-02 10.8250 n n n n n n n n 
    5   40    0  6.400e-04  9.168e-03 10.8250 n n n n n n n n Subspace collapsed.
    6   60    0  1.273e-03  2.203e-02 10.8250 n n n n n n n n 
    7   80    1  1.774e-03  3.248e-02 10.8250 y n n n n n n n 
    8  100    3  2.296e-03  4.339e-02 10.8250 y y n n n n y n 
    9   40    7  1.318e-03  2.561e-02 10.8250 y y n n y y y y Subspace collapsed.
   10   60    8  9.534e-04  1.850e-02 10.8250 y y n y y y y y 
   11   80   12  4.800e-04  9.053e-03 10.8250 y y y y y y y y 
   12  100   16  4.715e-04  8.828e-03 10.8250 y y y y y y y y 
   13   40   17  3.154e-04  5.943e-03 10.8250 y y y y y y y y Subspace collapsed.
   14   60   17  4.955e-04  9.508e-03 10.8250 y y y y y y y y 
   15   80   17  6.254e-04  1.205e-02 10.8250 y y y y y y y y 
   16   99   17  7.589e-04  1.466e-02 10.8250 y y y y y y y y 
   17  100   17  7.591e-04  1.467e-02 10.8250 y y y y y y y y 
   18   38   17  4.136e-04  8.049e-03 10.8250 y y y y y y y y Subspace collapsed.
   19   56   17  3.201e-04  6.229e-03 10.8250 y y y y y y y y 
   20   71   17  1.381e-04  2.561e-03 10.8250 y y y y y y y y 
   21   72   17  1.380e-04  2.558e-03 10.8250 y y y y y y y y 
   22   84   17  1.525e-04  2.917e-03 10.8250 y y y y y y y y 
   23   96   17  2.697e-04  5.099e-03 10.8250 y y y y y y y y 
   24  100   17  2.710e-04  5.124e-03 10.8250 y y y y y y y y 
   25   31   17  1.569e-04  3.064e-03 10.8250 y y y y y y y y Subspace collapsed.
   26   41   17  1.178e-04  2.271e-03 10.8250 y y y y y y y y 
   27   51   17  1.707e-04  3.364e-03 10.8250 y y y y y y y y 
   28   51   17  1.707e-04  3.364e-03 10.8250 y y y y y y y y 
   29   71   17  2.119e-04  4.172e-03 10.8250 y y y y y y y y 
   30   71   17  2.119e-04  4.172e-03 10.8250 y y y y y y y y 
   31   72   17  2.122e-04  4.179e-03 10.8250 y y y y y y y y 
   32   72   17  2.122e-04  4.179e-03 10.8250 y y y y y y y y 
   33   72   17  2.122e-04  4.179e-03 10.8250 y y y y y y y y 
   34   92   17  2.843e-04  5.614e-03 10.8250 y y y y y y y y 
   35   92   17  2.843e-04  5.614e-03 10.8250 y y y y y y y y 
   36   92   17  2.843e-04  5.614e-03 10.8250 y y y y y y y y 
   37   92   17  2.843e-04  5.614e-03 10.8250 y y y y y y y y 
   38  100   17  2.922e-04  5.778e-03 10.8250 y y y y y y y y 
   39   20   17  2.922e-04  5.778e-03 10.8250 y y y y y y y y Subspace collapsed.
   40   20   17  2.922e-04  5.778e-03 10.8250 y y y y y y y y 
   41   21   17  2.887e-04  5.707e-03 10.8250 y y y y y y y y 
   42   21   17  2.887e-04  5.707e-03 10.8250 y y y y y y y y 
   43   21   17  2.887e-04  5.707e-03 10.8250 y y y y y y y y 
   44   27   17  2.881e-04  5.695e-03 10.8250 y y y y y y y y 
   45   27   17  2.881e-04  5.695e-03 10.8250 y y y y y y y y 
   46   27   17  2.881e-04  5.695e-03 10.8250 y y y y y y y y 
   47   27   17  2.881e-04  5.695e-03 10.8250 y y y y y y y y 
   48   47   17  1.474e-04  2.910e-03 10.8250 y y y y y y y y 
   49   50   17  1.253e-04  2.474e-03 10.8250 y y y y y y y y 
   50   53   17  8.751e-05  1.720e-03 10.8250 y y y y y y y y 
   51   56   17  8.387e-05  1.651e-03 10.8250 y y y y y y y y 
   52   59   17  1.191e-04  2.340e-03 10.8250 y y y y y y y y 
   53   62   17  1.296e-04  2.564e-03 10.8250 y y y y y y y y 
   54   65   17  9.558e-05  1.887e-03 10.8250 y y y y y y y y 
   55   68   17  1.265e-04  2.511e-03 10.8250 y y y y y y y y 
   56   71   17  1.373e-04  2.731e-03 10.8250 y y y y y y y y 
   57   74   17  8.663e-05  1.721e-03 10.8250 y y y y y y y y 
   58   77   17  4.523e-05  8.969e-04 10.8250 y y y y y y y y 
   59   80   17  2.583e-05  5.106e-04 10.8250 y y y y y y y y 
--------------------------------------------------------------------------------
  Davidson Summary: 
 ------------------------------------------------------------
  State  0: excitation energy =  10.8250 a.u.   (converged)
  State  1: excitation energy =  10.8954 a.u.   (converged)
  State  2: excitation energy =  11.1456 a.u.   (converged)
  State  3: excitation energy =  11.1988 a.u.   (converged)
  State  4: excitation energy =  11.2486 a.u.   (converged)
  State  5: excitation energy =  11.2555 a.u.   (converged)
  State  6: excitation energy =  11.3038 a.u.   (converged)
  State  7: excitation energy =  11.3297 a.u.   (converged)
  State  8: excitation energy =  11.3362 a.u.   (converged)
  State  9: excitation energy =  11.5224 a.u.   (converged)
  State 10: excitation energy =  11.5293 a.u.   (converged)
  State 11: excitation energy =  11.5490 a.u.   (converged)
  State 12: excitation energy =  11.5751 a.u.   (converged)
  State 13: excitation energy =  11.5759 a.u.   (converged)
  State 14: excitation energy =  11.5887 a.u.   (converged)
  State 15: excitation energy =  11.5900 a.u.   (converged)
  State 16: excitation energy =  11.5957 a.u.   (converged)
  State 17: excitation energy =  12.2213 a.u.   (not converged)
  State 18: excitation energy =  12.2245 a.u.   (not converged)
  State 19: excitation energy =  12.2283 a.u.   (not converged)
 ------------------------------------------------------------


--------------------------------------------------------------------------------
                             Excited State Summary
--------------------------------------------------------------------------------

  Excited state  1 (A)                                             [converged]
  ----------------------------------------------------------------------------
  Term symbol:  2 (-) A                                     R^2 =  5.40259e-14

  Total energy:                                           -425.0865100504 a.u.
  Excitation energy:                                             294.561947 eV

  Osc. strength:                                                      0.000000
  Trans. dip. moment [a.u.]:           [   0.000001,    0.000002,   -0.000001]
  <i|r^2|0> [a.u.]:                    [  -0.000001,    0.000025,    0.000001]

  V1^2 = 0.9585, V2^2 = 0.0415

  Important amplitudes:
     core i     occ j      vir a      vir b          v   
    ------------------------------------------------------
     5 (A) B              21 (A) B                 0.6542
     5 (A) A              22 (A) A                -0.6541
    ------------------------------------------------------
  ----------------------------------------------------------------------------


  Excited state  2 (A)                                             [converged]
  ----------------------------------------------------------------------------
  Term symbol:  3 (-) A                                     R^2 =  2.69064e-14

  Total energy:                                           -425.0160540393 a.u.
  Excitation energy:                                             296.479153 eV

  Osc. strength:                                                      0.110309
  Trans. dip. moment [a.u.]:           [   0.043440,    0.109547,   -0.036043]
  <i|r^2|0> [a.u.]:                    [  -0.071159,    1.265606,    0.039043]

  V1^2 = 0.9540, V2^2 = 0.0460

  Important amplitudes:
     core i     occ j      vir a      vir b          v   
    ------------------------------------------------------
     5 (A) A              22 (A) A                 0.6656
     5 (A) B              21 (A) B                 0.6656
    ------------------------------------------------------
  ----------------------------------------------------------------------------


  Excited state  3 (A)                                             [converged]
  ----------------------------------------------------------------------------
  Term symbol:  4 (-) A                                     R^2 =  2.57387e-14

  Total energy:                                           -424.7658249289 a.u.
  Excitation energy:                                             303.288233 eV

  Osc. strength:                                                      0.000000
  Trans. dip. moment [a.u.]:           [  -0.000002,   -0.000005,    0.000001]
  <i|r^2|0> [a.u.]:                    [  -0.000000,   -0.000071,   -0.000005]

  V1^2 = 0.9287, V2^2 = 0.0713

  Important amplitudes:
     core i     occ j      vir a      vir b          v   
    ------------------------------------------------------
     5 (A) A              23 (A) A                -0.6196
     5 (A) B              23 (A) B                 0.6192
    ------------------------------------------------------
  ----------------------------------------------------------------------------


  Excited state  4 (A)                                             [converged]
  ----------------------------------------------------------------------------
  Term symbol:  5 (-) A                                     R^2 =  1.68565e-14

  Total energy:                                           -424.7126624477 a.u.
  Excitation energy:                                             304.734858 eV

  Osc. strength:                                                      0.001290
  Trans. dip. moment [a.u.]:           [   0.003130,    0.011149,   -0.006219]
  <i|r^2|0> [a.u.]:                    [  -0.020128,    0.102507,   -0.007845]

  V1^2 = 0.9182, V2^2 = 0.0818

  Important amplitudes:
     core i     occ j      vir a      vir b          v   
    ------------------------------------------------------
     5 (A) B              23 (A) B                -0.6521
     5 (A) A              23 (A) A                -0.6517
    ------------------------------------------------------
  ----------------------------------------------------------------------------


  Excited state  5 (A)                                             [converged]
  ----------------------------------------------------------------------------
  Term symbol:  6 (-) A                                     R^2 =  1.42459e-14

  Total energy:                                           -424.6628177846 a.u.
  Excitation energy:                                             306.091200 eV

  Osc. strength:                                                      0.000000
  Trans. dip. moment [a.u.]:           [  -0.000007,    0.000004,    0.000003]
  <i|r^2|0> [a.u.]:                    [   0.000012,    0.000044,   -0.000004]

  V1^2 = 0.9537, V2^2 = 0.0463

  Important amplitudes:
     core i     occ j      vir a      vir b          v   
    ------------------------------------------------------
     5 (A) A              27 (A) A                 0.5270
     5 (A) B              27 (A) B                -0.5269
    ------------------------------------------------------
  ----------------------------------------------------------------------------


  Excited state  6 (A)                                             [converged]
  ----------------------------------------------------------------------------
  Term symbol:  7 (-) A                                     R^2 =  1.43126e-14

  Total energy:                                           -424.6559262038 a.u.
  Excitation energy:                                             306.278730 eV

  Osc. strength:                                                      0.000000
  Trans. dip. moment [a.u.]:           [   0.000000,    0.000000,    0.000001]
  <i|r^2|0> [a.u.]:                    [  -0.000001,    0.000005,   -0.000001]

  V1^2 = 0.9535, V2^2 = 0.0465

  Important amplitudes:
     core i     occ j      vir a      vir b          v   
    ------------------------------------------------------
     5 (A) B              28 (A) B                 0.4837
     5 (A) A              28 (A) A                -0.4817
    ------------------------------------------------------
  ----------------------------------------------------------------------------


  Excited state  7 (A)                                             [converged]
  ----------------------------------------------------------------------------
  Term symbol:  8 (-) A                                     R^2 =  1.16308e-14

  Total energy:                                           -424.6076675071 a.u.
  Excitation energy:                                             307.591916 eV

  Osc. strength:                                                      0.000102
  Trans. dip. moment [a.u.]:           [   0.003021,   -0.001639,   -0.001332]
  <i|r^2|0> [a.u.]:                    [  -0.005233,   -0.018885,    0.001542]

  V1^2 = 0.8523, V2^2 = 0.1477

  Important amplitudes:
     core i     occ j      vir a      vir b          v   
    ------------------------------------------------------
     5 (A) B              22 (A) B                 0.9213
     5 (A) B   13 (A) A   22 (A) A   22 (A) B     -0.0744
    ------------------------------------------------------
  ----------------------------------------------------------------------------


  Excited state  8 (A)                                             [converged]
  ----------------------------------------------------------------------------
  Term symbol:  9 (-) A                                     R^2 =  3.05296e-14

  Total energy:                                           -424.5817644174 a.u.
  Excitation energy:                                             308.296775 eV

  Osc. strength:                                                      0.120092
  Trans. dip. moment [a.u.]:           [  -0.103573,    0.055931,    0.045210]
  <i|r^2|0> [a.u.]:                    [   0.179416,    0.644622,   -0.052385]

  V1^2 = 0.9443, V2^2 = 0.0557

  Important amplitudes:
     core i     occ j      vir a      vir b          v   
    ------------------------------------------------------
     5 (A) B              24 (A) B                -0.4926
     5 (A) A              24 (A) A                -0.4921
    ------------------------------------------------------
  ----------------------------------------------------------------------------


  Excited state  9 (A)                                             [converged]
  ----------------------------------------------------------------------------
  Term symbol:  10 (-) A                                    R^2 =  2.17160e-14

  Total energy:                                           -424.5752619057 a.u.
  Excitation energy:                                             308.473717 eV

  Osc. strength:                                                      0.119026
  Trans. dip. moment [a.u.]:           [  -0.056368,   -0.014500,   -0.111184]
  <i|r^2|0> [a.u.]:                    [   0.097932,   -0.165566,    0.110546]

  V1^2 = 0.9440, V2^2 = 0.0560

  Important amplitudes:
     core i     occ j      vir a      vir b          v   
    ------------------------------------------------------
     5 (A) B              25 (A) B                -0.4900
     5 (A) A              25 (A) A                -0.4900
    ------------------------------------------------------
  ----------------------------------------------------------------------------


  Excited state 10 (A)                                             [converged]
  ----------------------------------------------------------------------------
  Term symbol:  11 (-) A                                    R^2 =  5.41409e-14

  Total energy:                                           -424.3890429982 a.u.
  Excitation energy:                                             313.540991 eV

  Osc. strength:                                                      0.000001
  Trans. dip. moment [a.u.]:           [  -0.000115,   -0.000299,    0.000106]
  <i|r^2|0> [a.u.]:                    [   0.000213,   -0.003422,   -0.000090]

  V1^2 = 0.9128, V2^2 = 0.0872

  Important amplitudes:
     core i     occ j      vir a      vir b          v   
    ------------------------------------------------------
     5 (A) A              26 (A) A                 0.5767
     5 (A) B              26 (A) B                -0.5716
    ------------------------------------------------------
  ----------------------------------------------------------------------------


  Excited state 11 (A)                                             [converged]
  ----------------------------------------------------------------------------
  Term symbol:  12 (-) A                                    R^2 =  1.03076e-13

  Total energy:                                           -424.3821441301 a.u.
  Excitation energy:                                             313.728719 eV

  Osc. strength:                                                      0.000005
  Trans. dip. moment [a.u.]:           [   0.000262,    0.000679,   -0.000239]
  <i|r^2|0> [a.u.]:                    [  -0.000474,    0.007787,    0.000213]

  V1^2 = 0.9155, V2^2 = 0.0845

  Important amplitudes:
     core i     occ j      vir a      vir b          v   
    ------------------------------------------------------
     5 (A) B              29 (A) B                 0.5062
     5 (A) A              29 (A) A                -0.5053
    ------------------------------------------------------
  ----------------------------------------------------------------------------


  Excited state 12 (A)                                             [converged]
  ----------------------------------------------------------------------------
  Term symbol:  13 (-) A                                    R^2 =  7.16942e-14

  Total energy:                                           -424.3624295212 a.u.
  Excitation energy:                                             314.265181 eV

  Osc. strength:                                                      0.042435
  Trans. dip. moment [a.u.]:           [   0.026163,    0.065993,   -0.021725]
  <i|r^2|0> [a.u.]:                    [  -0.042626,    0.762173,    0.023840]

  V1^2 = 0.9117, V2^2 = 0.0883

  Important amplitudes:
     core i     occ j      vir a      vir b          v   
    ------------------------------------------------------
     5 (A) B              26 (A) B                -0.6621
     5 (A) A              26 (A) A                -0.6507
    ------------------------------------------------------
  ----------------------------------------------------------------------------


  Excited state 13 (A)                                             [converged]
  ----------------------------------------------------------------------------
  Term symbol:  14 (-) A                                    R^2 =  8.21653e-14

  Total energy:                                           -424.3363214219 a.u.
  Excitation energy:                                             314.975618 eV

  Osc. strength:                                                      0.000001
  Trans. dip. moment [a.u.]:           [  -0.000247,    0.000131,    0.000109]
  <i|r^2|0> [a.u.]:                    [   0.000423,    0.001510,   -0.000122]

  V1^2 = 0.8958, V2^2 = 0.1042

  Important amplitudes:
     core i     occ j      vir a      vir b          v   
    ------------------------------------------------------
     5 (A) A              24 (A) A                 0.5106
     5 (A) B              24 (A) B                -0.5061
    ------------------------------------------------------
  ----------------------------------------------------------------------------


  Excited state 14 (A)                                             [converged]
  ----------------------------------------------------------------------------
  Term symbol:  15 (-) A                                    R^2 =  1.35620e-13

  Total energy:                                           -424.3355181040 a.u.
  Excitation energy:                                             314.997478 eV

  Osc. strength:                                                      0.000000
  Trans. dip. moment [a.u.]:           [   0.000023,    0.000049,   -0.000009]
  <i|r^2|0> [a.u.]:                    [  -0.000022,    0.000583,    0.000026]

  V1^2 = 0.8959, V2^2 = 0.1041

  Important amplitudes:
     core i     occ j      vir a      vir b          v   
    ------------------------------------------------------
     5 (A) A              25 (A) A                -0.5122
     5 (A) B              25 (A) B                 0.5121
    ------------------------------------------------------
  ----------------------------------------------------------------------------


  Excited state 15 (A)                                             [converged]
  ----------------------------------------------------------------------------
  Term symbol:  16 (-) A                                    R^2 =  5.67520e-13

  Total energy:                                           -424.3227159628 a.u.
  Excitation energy:                                             315.345842 eV

  Osc. strength:                                                      0.028274
  Trans. dip. moment [a.u.]:           [  -0.049696,    0.026834,    0.021677]
  <i|r^2|0> [a.u.]:                    [   0.085095,    0.309061,   -0.023984]

  V1^2 = 0.8995, V2^2 = 0.1005

  Important amplitudes:
     core i     occ j      vir a      vir b          v   
    ------------------------------------------------------
     5 (A) B              27 (A) B                -0.4927
     5 (A) A              27 (A) A                -0.4885
    ------------------------------------------------------
  ----------------------------------------------------------------------------


  Excited state 16 (A)                                             [converged]
  ----------------------------------------------------------------------------
  Term symbol:  17 (-) A                                    R^2 =  2.15051e-13

  Total energy:                                           -424.3214224712 a.u.
  Excitation energy:                                             315.381039 eV

  Osc. strength:                                                      0.029338
  Trans. dip. moment [a.u.]:           [   0.027640,    0.007111,    0.054612]
  <i|r^2|0> [a.u.]:                    [  -0.046881,    0.082045,   -0.054620]

  V1^2 = 0.8998, V2^2 = 0.1002

  Important amplitudes:
     core i     occ j      vir a      vir b          v   
    ------------------------------------------------------
     5 (A) B              25 (A) B                -0.4565
     5 (A) A              25 (A) A                -0.4564
    ------------------------------------------------------
  ----------------------------------------------------------------------------


  Excited state 17 (A)                                             [converged]
  ----------------------------------------------------------------------------
  Term symbol:  18 (-) A                                    R^2 =  8.61968e-13

  Total energy:                                           -424.3157579760 a.u.
  Excitation energy:                                             315.535178 eV

  Osc. strength:                                                      0.000067
  Trans. dip. moment [a.u.]:           [  -0.001703,   -0.001274,   -0.002028]
  <i|r^2|0> [a.u.]:                    [   0.028745,    0.013245,    0.027595]

  V1^2 = 0.9183, V2^2 = 0.0817

  Important amplitudes:
     core i     occ j      vir a      vir b          v   
    ------------------------------------------------------
     5 (A) B              29 (A) B                 0.6087
     5 (A) A              29 (A) A                 0.6052
    ------------------------------------------------------
  ----------------------------------------------------------------------------


  Excited state 18 (A)                                         [not converged]
  ----------------------------------------------------------------------------
  Term symbol:  19 (-) A                                    R^2 =  7.75104e-06

  Total energy:                                           -423.6902042628 a.u.
  Excitation energy:                                             332.557360 eV


  V1^2 = 0.8716, V2^2 = 0.1284

  Important amplitudes:
     core i     occ j      vir a      vir b          v   
    ------------------------------------------------------
     5 (A) A              32 (A) A                -0.6219
     5 (A) B              32 (A) B                -0.6188
    ------------------------------------------------------
  ----------------------------------------------------------------------------


  Excited state 19 (A)                                         [not converged]
  ----------------------------------------------------------------------------
  Term symbol:  20 (-) A                                    R^2 =  5.10590e-04

  Total energy:                                           -423.6869309972 a.u.
  Excitation energy:                                             332.646430 eV


  V1^2 = 0.8709, V2^2 = 0.1291

  Important amplitudes:
     core i     occ j      vir a      vir b          v   
    ------------------------------------------------------
     5 (A) A              33 (A) A                 0.6550
     5 (A) B              33 (A) B                -0.6538
    ------------------------------------------------------
  ----------------------------------------------------------------------------


  Excited state 20 (A)                                         [not converged]
  ----------------------------------------------------------------------------
  Term symbol:  21 (-) A                                    R^2 =  7.79130e-05

  Total energy:                                           -423.6831989019 a.u.
  Excitation energy:                                             332.747986 eV


  V1^2 = 0.8701, V2^2 = 0.1299

  Important amplitudes:
     core i     occ j      vir a      vir b          v   
    ------------------------------------------------------
     5 (A) A              32 (A) A                 0.6174
     5 (A) B              32 (A) B                -0.6143
    ------------------------------------------------------
  ----------------------------------------------------------------------------


--------------------------------------------------------------------------------
  Time of ADC calculation:  CPU 1289.58 s  wall 1328.10 s
================================================================================
 
 --------------------------------------------------------------
 
                    Orbital Energies (a.u.)
 --------------------------------------------------------------
 
 Alpha MOs
 -- Occupied --
-26.753 -26.749 -26.749 -26.555 -11.950  -2.186  -2.079  -2.074
 -1.807  -1.329  -1.252  -1.252  -1.200  -1.079  -1.079  -1.053
 -1.050  -1.026  -0.975  -0.869  -0.867
 -- Virtual --
 -0.184   0.000   0.212   0.214   0.330   0.418   0.423   0.432
  0.923   1.000   1.008   1.010   1.132   1.133   1.215   1.258
  1.261   1.262   1.283   1.286   1.288   1.305   1.352   1.419
  1.634   1.636   1.747   1.748   1.780   1.861   1.893   1.900
  1.908   1.908   1.921   1.961   1.963   1.965   1.971   2.067
  2.145   2.255   2.699   2.706   3.028   3.038   3.233   3.250
  3.253   3.565   4.178   4.681   4.919   4.940
 
 Beta MOs
 -- Occupied --
-26.753 -26.749 -26.749 -26.507 -11.950  -2.186  -2.079  -2.074
 -1.615  -1.329  -1.252  -1.252  -1.200  -1.079  -1.079  -1.053
 -1.050  -1.026  -0.817  -0.815
 -- Virtual --
 -0.184  -0.057   0.000   0.213   0.214   0.330   0.418   0.423
  0.432   0.954   1.000   1.008   1.010   1.132   1.133   1.260
  1.261   1.281   1.286   1.287   1.305   1.309   1.352   1.424
  1.438   1.634   1.636   1.747   1.748   1.780   1.870   1.907
  1.907   1.963   1.963   1.970   1.976   1.997   1.997   2.010
  2.067   2.146   2.255   2.699   2.706   3.028   3.038   3.233
  3.250   3.253   3.607   4.178   4.681   4.919   4.940
 --------------------------------------------------------------
 
          Ground-State Mulliken Net Atomic Charges

     Atom                 Charge (a.u.)    Spin (a.u.)
  --------------------------------------------------------
      1 C                     1.211025      -0.000555
      2 F                    -0.075012       0.000030
      3 F                    -0.074661       0.000029
      4 F                     0.003556       1.000470
      5 F                    -0.064908       0.000026
  --------------------------------------------------------
  Sum of atomic charges =     1.000000
  Sum of spin   charges =     1.000000

 -----------------------------------------------------------------
                    Cartesian Multipole Moments
 -----------------------------------------------------------------
    Charge (ESU x 10^10)
                 4.8032
    Dipole Moment (Debye)
         X      -2.1736      Y      14.5746      Z      -1.3168
       Tot      14.7945
    Quadrupole Moments (Debye-Ang)
        XX     -19.3391     XY      -6.5341     YY      24.3283
        XZ       0.2225     YZ      -4.2185     ZZ     -20.4006
    Octopole Moments (Debye-Ang^2)
       XXX      41.7513    XXY     -45.6268    XYY      -4.5316
       YYY      -6.6946    XXZ       1.2233    XYZ       1.1158
       YYZ     -13.3790    XZZ      13.1352    YZZ     -47.2400
       ZZZ      -0.5448
    Hexadecapole Moments (Debye-Ang^3)
      XXXX    -141.5877   XXXY      72.7428   XXYY    -170.5822
      XYYY      16.3188   YYYY    -478.3636   XXXZ       7.5445
      XXYZ      11.7829   XYYZ       7.4058   YYYZ      -9.2061
      XXZZ     -37.0850   XYZZ      21.3856   YYZZ    -162.9808
      XZZZ      11.9720   YZZZ      31.9130   ZZZZ     -91.9181
 -----------------------------------------------------------------
Archival summary:
1\1\tp-linux1\SP\HF\6-31G*\41(1+,2)\thomas\WedMar2220:29:012017WedMar2220:29:012017\0\\#,HF,6-31G*,\\1,2\C\F,1,1.20008\F,1,1.20752,2,119.972\F,1,1.2078,2,119.97,3,-172.78,0\F,1,3.54876,2,91.3939,3,-86.5337,0\\HF=-435.175046\\@

 Total job time:  1365.45s(wall), 1312.69s(cpu) 
 Wed Mar 22 20:29:01 2017

        *************************************************************
        *                                                           *
        *  Thank you very much for using Q-Chem.  Have a nice day.  *
        *                                                           *
        *************************************************************


0 sent ACK to 0 
now end server 0 ... 
cleanup process ... done
