
Running Job 1 of 1 ddtraj1t7.inp
qchem ddtraj1t7.inp_27282.0 /scratch/qchem/qchem27282/ 1
/mnt/software/qchem/bin/mpi/mpirun_qchem -machinefile /mnt/software/qchem/bin/mpi/machines -np 1 /mnt/software/qchem/exe/qcprog.exe ddtraj1t7.inp_27282.0 /scratch/qchem/qchem27282/

Process 0 of 1 is on tp-linux1 - thread support 0
initial socket setup ...start
initial socket setup ...done 
now start server 0 ... 

cmd = ssh tp-linux1 /mnt/software/qchem/bin/get_hostid 1482476565 > /scratch/qchem/qchem27282/lic.dat
                  Welcome to Q-Chem
     A Quantum Leap Into The Future Of Chemistry


 Q-Chem 4.3, Q-Chem, Inc., Pleasanton, CA (2015)

 Y. Shao,  Z. Gan,  E. Epifanovsky,  A. T. B. Gilbert,  M. Wormit,  
 J. Kussmann,  A. W. Lange,  A. Behn,  J. Deng,  X. Feng,  D. Ghosh,  
 M. Goldey,  P. R. Horn,  L. D. Jacobson,  I. Kaliman,  R. Z. Khaliullin,  
 T. Kus,  A. Landau,  J. Liu,  E. I. Proynov,  Y. M. Rhee,  R. M. Richard,  
 M. A. Rohrdanz,  R. P. Steele,  E. J. Sundstrom,  H. L. Woodcock III,  
 P. M. Zimmerman,  D. Zuev,  B. Albrecht,  E. Alguire,  B. Austin,  
 S. A. Baeppler,  G. J. O. Beran,  Y. A. Bernard,  E. Berquist,  
 K. Brandhorst,  K. B. Bravaya,  S. T. Brown,  D. Casanova,  C.-M. Chang,  
 Y. Chen,  S. H. Chien,  K. D. Closser,  D. L. Crittenden,  M. Diedenhofen,  
 R. A. DiStasio Jr.,  H. Do,  A. D. Dutoi,  R. G. Edgar,  P.-T. Fang,  
 S. Fatehi,  Q. Feng,  L. Fusti-Molnar,  A. Ghysels,  
 A. Golubeva-Zadorozhnaya,  J. Gomes,  A. Gunina,  M. W. D. Hanson-Heine,  
 P. H. P. Harbach,  A. W. Hauser,  E. G. Hohenstein,  Z. C. Holden,  K. Hui,  
 T.-C. Jagau,  H. Ji,  B. Kaduk,  K. Khistyaev,  Jaehoon Kim,  Jihan Kim,  
 R. A. King,  P. Klunzinger,  D. Kosenkov,  T. Kowalczyk,  C. M. Krauter,  
 K. U. Lao,  A. Laurent,  K. V. Lawler,  S. Lehtola,  S. V. Levchenko,  
 C. Y. Lin,  Y.-S. Lin,  F. Liu,  E. Livshits,  R. C. Lochan,  A. Luenser,  
 P. Manohar,  S. F. Manzer,  S.-P. Mao,  N. Mardirossian,  A. V. Marenich,  
 L. A. Martinez-Martinez,  S. A. Maurer,  N. J. Mayhall,  K. Nanda,  
 C. M. Oana,  R. Olivares-Amaya,  D. P. O'Neill,  J. A. Parkhill,  
 T. M. Perrine,  R. Peverati,  P. A. Pieniazek,  F. Plasser,  A. Prociuk,  
 D. R. Rehn,  E. Rosta,  N. J. Russ,  N. Sergueev,  S. M. Sharada,  
 S. Sharma,  D. W. Small,  A. Sodt,  T. Stauch,  T. Stein,  D. Stuck,  
 Y.-C. Su,  A. J. W. Thom,  T. Tsuchimochi,  L. Vogt,  O. Vydrov,  T. Wang,  
 M. A. Watson,  J. Wenzel,  A. White,  C. F. Williams,  V. Vanovschi,  
 S. Yeganeh,  S. R. Yost,  Z.-Q. You,  I. Y. Zhang,  X. Zhang,  Y. Zhao,  
 B. R. Brooks,  G. K. L. Chan,  D. M. Chipman,  C. J. Cramer,  
 W. A. Goddard III,  M. S. Gordon,  W. J. Hehre,  A. Klamt,  
 H. F. Schaefer III,  M. W. Schmidt,  C. D. Sherrill,  D. G. Truhlar,  
 A. Warshel,  X. Xu,  A. Aspuru-Guzik,  R. Baer,  A. T. Bell,  N. A. Besley,  
 J.-D. Chai,  A. Dreuw,  B. D. Dunietz,  T. R. Furlani,  S. R. Gwaltney,  
 C.-P. Hsu,  Y. Jung,  J. Kong,  D. S. Lambrecht,  W. Liang,  C. Ochsenfeld,  
 V. A. Rassolov,  L. V. Slipchenko,  J. E. Subotnik,  T. Van Voorhis,  
 J. M. Herbert,  A. I. Krylov,  P. M. W. Gill,  M. Head-Gordon

 Contributors to earlier versions of Q-Chem not listed above: 
 R. D. Adamson,  J. Baker,  E. F. C. Byrd,  A. K. Chakraborty,  C.-L. Cheng,  
 H. Dachsel,  R. J. Doerksen,  G. Hawkins,  A. Heyden,  S. Hirata,  
 G. Kedziora,  F. J. Keil,  C. Kelley,  P. P. Korambath,  W. Kurlancheek,  
 A. M. Lee,  M. S. Lee,  D. Liotard,  I. Lotan,  P. E. Maslen,  N. Nair,  
 D. Neuhauser,  R. Olson,  B. Peters,  J. Ritchie,  N. E. Schultz,  
 N. Shenvi,  A. C. Simmonett,  K. S. Thanthiriwatte,  Q. Wu,  W. Zhang

 Please cite Q-Chem as follows:
 Y. Shao et al., Mol. Phys. 113, 184-215 (2015)
 DOI: 10.1080/00268976.2014.952696

 Q-Chem 4.3.0 for Intel X86 Linux

 Parts of Q-Chem use Armadillo 5.200.1 (Boston Tea Smuggler).
 http://arma.sourceforge.net/

 Q-Chem begins on Thu Mar 23 11:58:39 2017  

Host: 
0

     Scratch files written to /scratch/qchem/qchem27282//
 Nov1815 1189b_ 19540  19532 5443   
 Parallel job on  1  processors
Processing $rem in /mnt/software/qchem/config/preferences.
 MEM_TOTAL  2000 

Checking the input file for inconsistencies... 	...done.

--------------------------------------------------------------
User input:
--------------------------------------------------------------
$comment
XAS calculation for valence excited states for CF4+ using cvs-adc(2) + 6-31G* basis set
job 1 - determination of HF orbitals
$end

$molecule
1 2
6  -0.632014  2.537279  -0.075606
9  0.586578  2.33286  0.005223
9  -1.136914  3.269471  0.785192
9  -1.155644  1.131739  0.453198
9  -1.133895  2.546121  -1.195859
$end

$comment
cvs-adc(2) calculation
$end

$rem
mem_total 3000
mem_static 1500
sym_ignore true
method cvs-adc(2)
basis 6-31G*
ee_singlets 20
cc_rest_occ 5                  !only excitations from the lowest N orbitals
unrestricted  true
max_scf_cycles 200
SCF_ALGORITHM = DIIS_GDM
SCF_CONVERGENCE = 6
THRESH = 10
$end
--------------------------------------------------------------
 ----------------------------------------------------------------
             Standard Nuclear Orientation (Angstroms)
    I     Atom           X                Y                Z
 ----------------------------------------------------------------
    1      C      -0.6320140000     2.5372790000    -0.0756060000
    2      F       0.5865780000     2.3328600000     0.0052230000
    3      F      -1.1369140000     3.2694710000     0.7851920000
    4      F      -1.1556440000     1.1317390000     0.4531980000
    5      F      -1.1338950000     2.5461210000    -1.1958590000
 ----------------------------------------------------------------
 Nuclear Repulsion Energy =   207.7206105611 hartrees
 There are       21 alpha and       20 beta electrons
 Requested basis set is 6-31G(d)
 There are 20 shells and 75 basis functions

 Total QAlloc Memory Limit   3000 MB
 Mega-Array Size      1467 MB
 MEM_STATIC part      1500 MB

                       Distance Matrix (Angstroms)
             C (  1)   F (  2)   F (  3)   F (  4)
   F (  2)  1.238260
   F (  3)  1.237741  2.110928
   F (  4)  1.590398  2.163033  2.163439
   F (  5)  1.227571  2.109053  2.108983  2.172634
 
 tim1(1): 
  0.000000000000000E+000
 tim1(2): 
  0.000000000000000E+000
 A cutoff of  1.0D-10 yielded    204 shell pairs
 There are      2979 function pairs
 
 -------------------------------------------------------
 OpenMP Integral Computing Module                       
 Release: version 1.0, May 2013, Q-Chem Inc. Pittsburgh 
 -------------------------------------------------------
 Integral Job Info:
 Integral job number is                      11
 Integral operator is                         1
 short-range coefficients                     0
 long-range coefficients              100000000
 Omega coefficients                           0
 if combine SR and LR in K                    0
 Integral screening is                        0
 Integral computing path is                   2
 max size of driver memory is            800000
 size of driver memory is                593474
 size of scratch memory is              2260544
 max col of scratch BK array               1296
 max len of scratch array in speh3          155
 max len of scratch index in speh4           18
 max int batch size is                      520
 min int batch size is                       52
 fixed nKL is                                52
 max L of basis functions is                  2
 order of int derivative is                   0
 number of shells is                         20
 number of basis is                          75
 number of cartesian basis is                75
 number of contracted shell pairs           204
 number of primitive shell pairs           1064
 maxK2 (contraction) of shell pair           36
 max number of K2 of shell pair               1
 max number of CS2 of shell pair             37
 max number of PS2 of shell pair            222
 mem total for path MDJ                   21832
 -------------------------------------------------------
 Smallest overlap matrix eigenvalue = 1.65E-03

 Scale SEOQF with 1.000000e+00/1.000000e-01/1.000000e+00

 Standard Electronic Orientation quadrupole field applied
 Nucleus-field energy     =     0.0000000109 hartrees
 Guess from superposition of atomic densities
 Warning:  Energy on first SCF cycle will be non-variational
 An unrestricted Hartree-Fock SCF calculation will be
 performed using Pulay DIIS + Geometric Direct Minimization
 SCF converges when RMS gradient is below 1.0E-06
 ---------------------------------------
  Cycle       Energy         DIIS Error
 ---------------------------------------
    1    -436.6588137379      9.26E-02
    2    -434.8882196303      1.85E-02
    3    -435.0926703474      8.05E-03 Done DIIS. Switching to GDM
    4    -435.1326571305      5.88E-02 Normal BFGS step
    5    -435.1381673946      3.00E-02 Normal BFGS step
    6    -435.1396128831      5.17E-03 Normal BFGS step
    7    -435.1397216537      3.98E-03 Normal BFGS step
    8    -435.1397921919      2.84E-03 Normal BFGS step
    9    -435.1398234772      2.33E-03 Normal BFGS step
   10    -435.1398692164      1.69E-03 Normal BFGS step
   11    -435.1399005530      1.64E-03 Normal BFGS step
   12    -435.1399180033      8.72E-04 Normal BFGS step
   13    -435.1399222795      2.04E-04 Normal BFGS step
   14    -435.1399229869      1.40E-04 Normal BFGS step
   15    -435.1399231243      1.45E-04 Normal BFGS step
   16    -435.1399231893      1.47E-04 Normal BFGS step
   17    -435.1399232896      1.49E-04 Normal BFGS step
   18    -435.1399234973      1.51E-04 Normal BFGS step
   19    -435.1399240248      2.14E-04 Normal BFGS step
   20    -435.1399253713      3.48E-04 Normal BFGS step
   21    -435.1399289640      5.75E-04 Normal BFGS step
   22    -435.1399375268      9.90E-04 Normal BFGS step
   23    -435.1399477353      1.66E-03 Normal BFGS step
   24    -435.1399747175      1.72E-03 Normal BFGS step
   25    -435.1400441137      1.10E-03 Normal BFGS step
   26    -435.1400484923      2.30E-03 Normal BFGS step
   27    -435.1400815908      1.50E-03 Normal BFGS step
   28    -435.1401083654      1.00E-03 Dog-leg BFGS step
   29    -435.1400621183      3.60E-03 Line search: overstep
   30    -435.1401232374      9.78E-04 Dog-leg BFGS step
   31    -435.1401390629      1.16E-03 Normal BFGS step
   32    -435.1401476442      8.71E-04 Normal BFGS step
   33    -435.1401554057      1.45E-03 Normal BFGS step
   34    -435.1401641882      6.82E-04 Normal BFGS step
   35    -435.1401697214      2.39E-04 Normal BFGS step
   36    -435.1401714665      3.61E-04 Normal BFGS step
   37    -435.1401727664      2.08E-04 Normal BFGS step
   38    -435.1401734129      1.31E-04 Normal BFGS step
   39    -435.1401737142      1.04E-04 Normal BFGS step
   40    -435.1401737883      7.59E-05 Normal BFGS step
   41    -435.1401738307      5.33E-05 Normal BFGS step
   42    -435.1401738685      2.87E-05 Normal BFGS step
   43    -435.1401738936      2.21E-05 Normal BFGS step
   44    -435.1401739003      1.36E-05 Normal BFGS step
   45    -435.1401739018      6.44E-06 Normal BFGS step
   46    -435.1401739021      1.84E-06 Normal BFGS step
   47    -435.1401739021      5.62E-07 Convergence criterion met
 ---------------------------------------
 <S^2> = 0.7545
 SCF time:  CPU 8.18 s  wall 15.34 s
 SCF   energy in the final basis set = -435.1401739021
 Total energy in the final basis set = -435.1401739021
================================================================================
|                                                                              |
|                                 A D C  M A N                                 |
|                                                                              |
 ------------------------------------------------------------------------------ 
|                                                                              |
| Components:                                                                  |
|                                                                              |
| - libvmm - 1.2-release                                                       |
|   Authors:                                                                   |
|   Evgeny Epifanovsky, Ilya Kaliman                                           |
|                                                                              |
| - libtensor - 2.4-trunk                                                      |
|   Authors:                                                                   |
|   Evgeny Epifanovsky, Michael Wormit, Dmitry Zuev, Sam Manzer                |
|                                                                              |
| - libwfa - 1.1-beta                                                          |
|   Authors:                                                                   |
|   Felix Plasser, Stefanie Baeppler, Benjamin Thomitzni, Michael Wormit       |
|                                                                              |
| - libadc - 1.0-beta                                                          |
|   Authors:                                                                   |
|   Michael Wormit, Philipp H. P. Harbach, Caroline Krauter, Dirk Rehn,        |
|   Matthias Schneider, Jan Wenzel                                             |
|                                                                              |
| - adcman - 2.4-beta                                                          |
|   Authors:                                                                   |
|   Michael Wormit, Philipp H. P. Harbach, Caroline Krauter, Dirk Rehn,        |
|   Jan Wenzel, Andreas Dreuw                                                  |
|                                                                              |
| Authors of earlier versions of ADCMAN:                                       |
| Andreas Dreuw, Jan Hendrik Starcke, Dirk Rehn, Michael Wormit                |
|                                                                              |
================================================================================

 
 Alpha MOs, Unrestricted
 -- Occupied --                  
-26.846 -26.700 -26.699 -26.699 -11.933  -2.164  -2.080  -2.025
  1 A     2 A     3 A     4 A     5 A     6 A     7 A     8 A                  
 -2.022  -1.323  -1.268  -1.232  -1.214  -1.194  -1.143  -1.044
  9 A    10 A    11 A    12 A    13 A    14 A    15 A    16 A                  
 -1.039  -1.039  -1.011  -1.007  -0.984
 17 A    18 A    19 A    20 A    21 A                                          
 -- Virtual --                   
 -0.081   0.108   0.202   0.214   0.387   0.418   0.425   0.432
 22 A    23 A    24 A    25 A    26 A    27 A    28 A    29 A                  
  0.926   0.959   0.968   1.031   1.033   1.084   1.238   1.274
 30 A    31 A    32 A    33 A    34 A    35 A    36 A    37 A                  
  1.289   1.295   1.317   1.318   1.334   1.336   1.447   1.568
 38 A    39 A    40 A    41 A    42 A    43 A    44 A    45 A                  
  1.572   1.676   1.701   1.713   1.798   1.799   1.804   1.961
 46 A    47 A    48 A    49 A    50 A    51 A    52 A    53 A                  
  1.971   1.987   1.987   2.044   2.046   2.070   2.082   2.179
 54 A    55 A    56 A    57 A    58 A    59 A    60 A    61 A                  
  2.470   2.671   2.691   2.833   2.975   2.987   3.233   3.236
 62 A    63 A    64 A    65 A    66 A    67 A    68 A    69 A                  
  3.284   3.964   4.409   4.808   4.850   6.126
 70 A    71 A    72 A    73 A    74 A    75 A                                  
 
 Beta MOs, Unrestricted
 -- Occupied --                  
-26.795 -26.699 -26.699 -26.699 -11.934  -2.141  -2.026  -2.021
  1 A     2 A     3 A     4 A     5 A     6 A     7 A     8 A                  
 -1.912  -1.311  -1.213  -1.210  -1.204  -1.099  -1.040  -1.037
  9 A    10 A    11 A    12 A    13 A    14 A    15 A    16 A                  
 -1.014  -1.011  -1.001  -0.983
 17 A    18 A    19 A    20 A                                                  
 -- Virtual --                   
 -0.319  -0.071   0.112   0.215   0.222   0.394   0.423   0.426
 21 A    22 A    23 A    24 A    25 A    26 A    27 A    28 A                  
  0.432   0.969   0.986   1.015   1.032   1.034   1.093   1.278
 29 A    30 A    31 A    32 A    33 A    34 A    35 A    36 A                  
  1.284   1.302   1.314   1.321   1.334   1.344   1.374   1.457
 37 A    38 A    39 A    40 A    41 A    42 A    43 A    44 A                  
  1.598   1.603   1.686   1.745   1.745   1.803   1.809   1.810
 45 A    46 A    47 A    48 A    49 A    50 A    51 A    52 A                  
  1.978   1.984   1.993   1.994   2.054   2.075   2.082   2.090
 53 A    54 A    55 A    56 A    57 A    58 A    59 A    60 A                  
  2.186   2.476   2.675   2.691   2.852   2.976   2.987   3.233
 61 A    62 A    63 A    64 A    65 A    66 A    67 A    68 A                  
  3.237   3.285   3.988   4.412   4.809   4.851   6.129
 69 A    70 A    71 A    72 A    73 A    74 A    75 A                          
 

--------------------------------------------------------------------------------
                                   HF Summary                                   
--------------------------------------------------------------------------------
  Energy:                                                 -435.1401739021 a.u.
  Dip. moment [a.u.]:                  [ -53.972633,  182.589381,   -0.183144]
  Total dipole [Debye]:                                             483.947288
  <r^2> [a.u.]:                        [ 158.745302,  904.009755,   88.351896]
  Total <r^2> [a.u.]:                                              1151.106952
--------------------------------------------------------------------------------

--------------------------------------------------------------------------------
                                 MP(2) Summary                                  
--------------------------------------------------------------------------------
  Energy contribution:                                      -0.7455041509 a.u.
  Total energy:                                           -435.8856780530 a.u.
  Dip. moment [a.u.]:                  [ -53.986430,  182.561965,   -0.179691]
  Total dipole [Debye]:                                             483.890397
  <r^2> [a.u.]:                        [ 158.596072,  903.792788,   88.177904]
  Total <r^2> [a.u.]:                                              1150.566764
--------------------------------------------------------------------------------
  Starting Davidson ... 
--------------------------------------------------------------------------------
   It NVec Conv  Avg. Norm  Max. Norm  Conv. states           Remark
--------------------------------------------------------------------------------
        20    0  2.107e-01  1.137e+00 11.0354 n n n n n n n n Guess.
    1   40    0  3.889e-02  5.079e-01 10.8699 n n n n n n n n 
    2   60    0  7.871e-03  8.900e-02 10.8684 n n n n n n n n 
    3   80    0  2.255e-03  2.313e-02 10.8684 n n n n n n n n 
    4  100    0  1.229e-03  1.608e-02 10.8684 n n n n n n n n 
    5   40    0  7.691e-04  9.515e-03 10.8684 n n n n n n n n Subspace collapsed.
    6   60    0  6.204e-04  9.157e-03 10.8684 n n n n n n n n 
    7   80    0  4.315e-04  5.839e-03 10.8684 n n n n n n n n 
    8  100    2  2.088e-04  2.788e-03 10.8684 y n y n n n n n 
    9   40    6  9.514e-05  1.262e-03 10.8684 y y y n y y n n Subspace collapsed.
   10   60    8  4.942e-05  6.826e-04 10.8684 y y y n y y y y 
   11   80    9  3.081e-05  3.958e-04 10.8684 y y y y y y y y 
   12  100   15  2.588e-05  3.428e-04 10.8684 y y y y y y y y 
   13   40   16  1.598e-05  2.062e-04 10.8684 y y y y y y y y Subspace collapsed.
   14   60   17  1.560e-05  1.939e-04 10.8684 y y y y y y y y 
   15   80   17  1.066e-05  1.365e-04 10.8684 y y y y y y y y 
   16  100   17  1.022e-05  1.610e-04 10.8684 y y y y y y y y 
   17   38   17  4.365e-06  6.852e-05 10.8684 y y y y y y y y Subspace collapsed.
   18   55   17  3.813e-06  6.626e-05 10.8684 y y y y y y y y 
   19   72   17  2.154e-06  3.785e-05 10.8684 y y y y y y y y 
   20   87   17  2.633e-06  4.987e-05 10.8684 y y y y y y y y 
   21  100   17  2.176e-06  4.083e-05 10.8684 y y y y y y y y 
   22   32   17  1.124e-06  2.113e-05 10.8684 y y y y y y y y Subspace collapsed.
   23   43   17  6.083e-07  1.070e-05 10.8684 y y y y y y y y 
   24   54   17  5.614e-07  1.036e-05 10.8684 y y y y y y y y 
   25   65   17  3.524e-07  6.243e-06 10.8684 y y y y y y y y 
   26   65   17  3.524e-07  6.243e-06 10.8684 y y y y y y y y 
   27   85   17  4.555e-07  8.222e-06 10.8684 y y y y y y y y 
   28   87   17  4.576e-07  8.269e-06 10.8684 y y y y y y y y 
   29   87   17  4.576e-07  8.269e-06 10.8684 y y y y y y y y 
   30   87   17  4.576e-07  8.269e-06 10.8684 y y y y y y y y 
   31  100   17  4.654e-07  8.378e-06 10.8684 y y y y y y y y 
   32   26   18  2.135e-07  3.776e-06 10.8684 y y y y y y y y Subspace collapsed.
   33   26   18  2.135e-07  3.776e-06 10.8684 y y y y y y y y 
   34   26   18  2.135e-07  3.776e-06 10.8684 y y y y y y y y 
   35   46   18  2.487e-07  4.393e-06 10.8684 y y y y y y y y 
   36   51   18  2.092e-07  3.537e-06 10.8684 y y y y y y y y 
   37   56   18  2.400e-07  3.582e-06 10.8684 y y y y y y y y 
   38   56   18  2.400e-07  3.582e-06 10.8684 y y y y y y y y 
   39   56   18  2.400e-07  3.582e-06 10.8684 y y y y y y y y 
   40   56   18  2.400e-07  3.582e-06 10.8684 y y y y y y y y 
   41   76   18  2.510e-07  4.176e-06 10.8684 y y y y y y y y 
   42   80   18  2.528e-07  4.800e-06 10.8684 y y y y y y y y 
   43   80   18  2.528e-07  4.800e-06 10.8684 y y y y y y y y 
   44   80   18  2.528e-07  4.800e-06 10.8684 y y y y y y y y 
   45   80   18  2.528e-07  4.800e-06 10.8684 y y y y y y y y 
   46  100   19  1.715e-07  3.346e-06 10.8684 y y y y y y y y 
   47   24   19  1.089e-07  2.130e-06 10.8684 y y y y y y y y Subspace collapsed.
   48   27   19  1.055e-07  2.074e-06 10.8684 y y y y y y y y 
   49   30   19  7.830e-08  1.544e-06 10.8684 y y y y y y y y 
   50   33   19  5.424e-08  1.072e-06 10.8684 y y y y y y y y 
   51   36   20  3.630e-08  7.188e-07 10.8684 y y y y y y y y Converged.
--------------------------------------------------------------------------------
  Davidson Summary: 
 ------------------------------------------------------------
  State  0: excitation energy =  10.8684 a.u.   (converged)
  State  1: excitation energy =  10.8693 a.u.   (converged)
  State  2: excitation energy =  10.9543 a.u.   (converged)
  State  3: excitation energy =  11.1928 a.u.   (converged)
  State  4: excitation energy =  11.2019 a.u.   (converged)
  State  5: excitation energy =  11.2132 a.u.   (converged)
  State  6: excitation energy =  11.2706 a.u.   (converged)
  State  7: excitation energy =  11.2808 a.u.   (converged)
  State  8: excitation energy =  11.2912 a.u.   (converged)
  State  9: excitation energy =  11.5453 a.u.   (converged)
  State 10: excitation energy =  11.5790 a.u.   (converged)
  State 11: excitation energy =  11.5849 a.u.   (converged)
  State 12: excitation energy =  11.5863 a.u.   (converged)
  State 13: excitation energy =  11.5985 a.u.   (converged)
  State 14: excitation energy =  11.6014 a.u.   (converged)
  State 15: excitation energy =  11.6196 a.u.   (converged)
  State 16: excitation energy =  11.6365 a.u.   (converged)
  State 17: excitation energy =  12.1240 a.u.   (converged)
  State 18: excitation energy =  12.1498 a.u.   (converged)
  State 19: excitation energy =  12.1567 a.u.   (converged)
 ------------------------------------------------------------


--------------------------------------------------------------------------------
                             Excited State Summary
--------------------------------------------------------------------------------

  Excited state  1 (A)                                             [converged]
  ----------------------------------------------------------------------------
  Term symbol:  2 (-) A                                     R^2 =  6.25099e-13

  Total energy:                                           -425.0172756348 a.u.
  Excitation energy:                                             295.744271 eV

  Osc. strength:                                                      0.000685
  Trans. dip. moment [a.u.]:           [  -0.003248,   -0.008578,    0.003230]
  <i|r^2|0> [a.u.]:                    [   0.008433,   -0.081512,   -0.000303]

  V1^2 = 0.9621, V2^2 = 0.0379

  Important amplitudes:
     core i     occ j      vir a      vir b          v   
    ------------------------------------------------------
     5 (A) A              22 (A) A                -0.7167
     5 (A) B              22 (A) B                 0.6166
    ------------------------------------------------------
  ----------------------------------------------------------------------------


  Excited state  2 (A)                                             [converged]
  ----------------------------------------------------------------------------
  Term symbol:  3 (-) A                                     R^2 =  1.27088e-13

  Total energy:                                           -425.0163467124 a.u.
  Excitation energy:                                             295.769548 eV

  Osc. strength:                                                      0.000008
  Trans. dip. moment [a.u.]:           [   0.000558,   -0.000898,   -0.000128]
  <i|r^2|0> [a.u.]:                    [  -0.002271,   -0.007744,    0.000219]

  V1^2 = 0.8603, V2^2 = 0.1397

  Important amplitudes:
     core i     occ j      vir a      vir b          v   
    ------------------------------------------------------
     5 (A) B              21 (A) B                 0.9239
     5 (A) B   11 (A) B   21 (A) B   22 (A) B      0.0795
    ------------------------------------------------------
  ----------------------------------------------------------------------------


  Excited state  3 (A)                                             [converged]
  ----------------------------------------------------------------------------
  Term symbol:  4 (-) A                                     R^2 =  7.38863e-13

  Total energy:                                           -424.9313471947 a.u.
  Excitation energy:                                             298.082502 eV

  Osc. strength:                                                      0.123649
  Trans. dip. moment [a.u.]:           [  -0.043703,   -0.115211,    0.041809]
  <i|r^2|0> [a.u.]:                    [   0.111835,   -1.098366,   -0.004535]

  V1^2 = 0.9585, V2^2 = 0.0415

  Important amplitudes:
     core i     occ j      vir a      vir b          v   
    ------------------------------------------------------
     5 (A) B              22 (A) B                -0.7237
     5 (A) A              22 (A) A                -0.6247
    ------------------------------------------------------
  ----------------------------------------------------------------------------


  Excited state  4 (A)                                             [converged]
  ----------------------------------------------------------------------------
  Term symbol:  5 (-) A                                     R^2 =  1.11432e-13

  Total energy:                                           -424.6929165669 a.u.
  Excitation energy:                                             304.570530 eV

  Osc. strength:                                                      0.000022
  Trans. dip. moment [a.u.]:           [   0.000816,    0.001498,   -0.000304]
  <i|r^2|0> [a.u.]:                    [  -0.001688,    0.014878,    0.000374]

  V1^2 = 0.9341, V2^2 = 0.0659

  Important amplitudes:
     core i     occ j      vir a      vir b          v   
    ------------------------------------------------------
     5 (A) A              23 (A) A                 0.5950
     5 (A) B              23 (A) B                -0.5692
    ------------------------------------------------------
  ----------------------------------------------------------------------------


  Excited state  5 (A)                                             [converged]
  ----------------------------------------------------------------------------
  Term symbol:  6 (-) A                                     R^2 =  1.42724e-13

  Total energy:                                           -424.6838179872 a.u.
  Excitation energy:                                             304.818115 eV

  Osc. strength:                                                      0.000064
  Trans. dip. moment [a.u.]:           [   0.002411,   -0.001333,   -0.001018]
  <i|r^2|0> [a.u.]:                    [  -0.005998,   -0.012661,    0.000382]

  V1^2 = 0.9540, V2^2 = 0.0460

  Important amplitudes:
     core i     occ j      vir a      vir b          v   
    ------------------------------------------------------
     5 (A) A              24 (A) A                 0.5382
     5 (A) B              25 (A) B                -0.5248
    ------------------------------------------------------
  ----------------------------------------------------------------------------


  Excited state  6 (A)                                             [converged]
  ----------------------------------------------------------------------------
  Term symbol:  7 (-) A                                     R^2 =  4.51729e-14

  Total energy:                                           -424.6725132816 a.u.
  Excitation energy:                                             305.125731 eV

  Osc. strength:                                                      0.000001
  Trans. dip. moment [a.u.]:           [   0.000171,    0.000288,    0.000104]
  <i|r^2|0> [a.u.]:                    [  -0.000365,    0.002854,    0.000033]

  V1^2 = 0.9526, V2^2 = 0.0474

  Important amplitudes:
     core i     occ j      vir a      vir b          v   
    ------------------------------------------------------
     5 (A) B              24 (A) B                -0.5063
     5 (A) A              25 (A) A                -0.5031
    ------------------------------------------------------
  ----------------------------------------------------------------------------


  Excited state  7 (A)                                             [converged]
  ----------------------------------------------------------------------------
  Term symbol:  8 (-) A                                     R^2 =  2.13351e-13

  Total energy:                                           -424.6151219866 a.u.
  Excitation energy:                                             306.687428 eV

  Osc. strength:                                                      0.006011
  Trans. dip. moment [a.u.]:           [   0.018305,    0.015662,    0.014819]
  <i|r^2|0> [a.u.]:                    [  -0.024585,    0.177888,    0.016688]

  V1^2 = 0.9191, V2^2 = 0.0809

  Important amplitudes:
     core i     occ j      vir a      vir b          v   
    ------------------------------------------------------
     5 (A) B              23 (A) B                 0.6436
     5 (A) A              23 (A) A                 0.6198
    ------------------------------------------------------
  ----------------------------------------------------------------------------


  Excited state  8 (A)                                             [converged]
  ----------------------------------------------------------------------------
  Term symbol:  9 (-) A                                     R^2 =  1.11703e-13

  Total energy:                                           -424.6048639797 a.u.
  Excitation energy:                                             306.966562 eV

  Osc. strength:                                                      0.119527
  Trans. dip. moment [a.u.]:           [  -0.103631,    0.056007,    0.044913]
  <i|r^2|0> [a.u.]:                    [   0.255296,    0.534385,   -0.016405]

  V1^2 = 0.9454, V2^2 = 0.0546

  Important amplitudes:
     core i     occ j      vir a      vir b          v   
    ------------------------------------------------------
     5 (A) B              25 (A) B                -0.5889
     5 (A) A              24 (A) A                -0.5513
    ------------------------------------------------------
  ----------------------------------------------------------------------------


  Excited state  9 (A)                                             [converged]
  ----------------------------------------------------------------------------
  Term symbol:  10 (-) A                                    R^2 =  3.15161e-14

  Total energy:                                           -424.5944910130 a.u.
  Excitation energy:                                             307.248825 eV

  Osc. strength:                                                      0.114576
  Trans. dip. moment [a.u.]:           [  -0.055103,   -0.015515,   -0.109289]
  <i|r^2|0> [a.u.]:                    [   0.139006,   -0.141813,    0.028177]

  V1^2 = 0.9445, V2^2 = 0.0555

  Important amplitudes:
     core i     occ j      vir a      vir b          v   
    ------------------------------------------------------
     5 (A) B              24 (A) B                 0.5534
     5 (A) A              25 (A) A                -0.5531
    ------------------------------------------------------
  ----------------------------------------------------------------------------


  Excited state 10 (A)                                             [converged]
  ----------------------------------------------------------------------------
  Term symbol:  11 (-) A                                    R^2 =  7.27589e-14

  Total energy:                                           -424.3404067476 a.u.
  Excitation energy:                                             314.162810 eV

  Osc. strength:                                                      0.000000
  Trans. dip. moment [a.u.]:           [   0.000001,    0.000074,   -0.000064]
  <i|r^2|0> [a.u.]:                    [   0.000141,    0.000850,    0.000157]

  V1^2 = 0.9063, V2^2 = 0.0937

  Important amplitudes:
     core i     occ j      vir a      vir b          v   
    ------------------------------------------------------
     5 (A) A              28 (A) A                 0.4139
     5 (A) B              28 (A) B                 0.3969
    ------------------------------------------------------
  ----------------------------------------------------------------------------


  Excited state 11 (A)                                             [converged]
  ----------------------------------------------------------------------------
  Term symbol:  12 (-) A                                    R^2 =  4.87731e-14

  Total energy:                                           -424.3067119564 a.u.
  Excitation energy:                                             315.079692 eV

  Osc. strength:                                                      0.004303
  Trans. dip. moment [a.u.]:           [  -0.019629,    0.010156,    0.008305]
  <i|r^2|0> [a.u.]:                    [   0.047261,    0.097414,   -0.002859]

  V1^2 = 0.8931, V2^2 = 0.1069

  Important amplitudes:
     core i     occ j      vir a      vir b          v   
    ------------------------------------------------------
     5 (A) A              27 (A) A                -0.6840
     5 (A) A              24 (A) A                 0.5249
    ------------------------------------------------------
  ----------------------------------------------------------------------------


  Excited state 12 (A)                                             [converged]
  ----------------------------------------------------------------------------
  Term symbol:  13 (-) A                                    R^2 =  6.99946e-14

  Total energy:                                           -424.3007328608 a.u.
  Excitation energy:                                             315.242391 eV

  Osc. strength:                                                      0.018655
  Trans. dip. moment [a.u.]:           [  -0.016751,   -0.043656,    0.015132]
  <i|r^2|0> [a.u.]:                    [   0.022420,   -0.436756,   -0.021704]

  V1^2 = 0.9086, V2^2 = 0.0914

  Important amplitudes:
     core i     occ j      vir a      vir b          v   
    ------------------------------------------------------
     5 (A) A              28 (A) A                -0.4642
     5 (A) B              29 (A) B                 0.4011
    ------------------------------------------------------
  ----------------------------------------------------------------------------


  Excited state 13 (A)                                             [converged]
  ----------------------------------------------------------------------------
  Term symbol:  14 (-) A                                    R^2 =  3.34963e-14

  Total energy:                                           -424.2993987086 a.u.
  Excitation energy:                                             315.278695 eV

  Osc. strength:                                                      0.000389
  Trans. dip. moment [a.u.]:           [  -0.000837,    0.003226,   -0.006267]
  <i|r^2|0> [a.u.]:                    [   0.004252,    0.033248,    0.003872]

  V1^2 = 0.8932, V2^2 = 0.1068

  Important amplitudes:
     core i     occ j      vir a      vir b          v   
    ------------------------------------------------------
     5 (A) A              29 (A) A                 0.4651
     5 (A) A              25 (A) A                 0.4501
    ------------------------------------------------------
  ----------------------------------------------------------------------------


  Excited state 14 (A)                                             [converged]
  ----------------------------------------------------------------------------
  Term symbol:  15 (-) A                                    R^2 =  8.78231e-14

  Total energy:                                           -424.2871692923 a.u.
  Excitation energy:                                             315.611475 eV

  Osc. strength:                                                      0.023775
  Trans. dip. moment [a.u.]:           [  -0.045992,    0.024280,    0.019236]
  <i|r^2|0> [a.u.]:                    [   0.110998,    0.232843,   -0.006309]

  V1^2 = 0.8931, V2^2 = 0.1069

  Important amplitudes:
     core i     occ j      vir a      vir b          v   
    ------------------------------------------------------
     5 (A) B              27 (A) B                -0.7211
     5 (A) B              25 (A) B                 0.4681
    ------------------------------------------------------
  ----------------------------------------------------------------------------


  Excited state 15 (A)                                             [converged]
  ----------------------------------------------------------------------------
  Term symbol:  16 (-) A                                    R^2 =  6.69841e-14

  Total energy:                                           -424.2842896423 a.u.
  Excitation energy:                                             315.689834 eV

  Osc. strength:                                                      0.028660
  Trans. dip. moment [a.u.]:           [  -0.028140,   -0.011463,   -0.052747]
  <i|r^2|0> [a.u.]:                    [   0.069633,   -0.107604,    0.015887]

  V1^2 = 0.8960, V2^2 = 0.1040

  Important amplitudes:
     core i     occ j      vir a      vir b          v   
    ------------------------------------------------------
     5 (A) B              29 (A) B                -0.4747
     5 (A) A              29 (A) A                 0.4091
    ------------------------------------------------------
  ----------------------------------------------------------------------------


  Excited state 16 (A)                                             [converged]
  ----------------------------------------------------------------------------
  Term symbol:  17 (-) A                                    R^2 =  1.56737e-13

  Total energy:                                           -424.2661128641 a.u.
  Excitation energy:                                             316.184449 eV

  Osc. strength:                                                      0.000710
  Trans. dip. moment [a.u.]:           [   0.001687,    0.007680,   -0.005465]
  <i|r^2|0> [a.u.]:                    [  -0.007416,    0.069848,   -0.001872]

  V1^2 = 0.8935, V2^2 = 0.1065

  Important amplitudes:
     core i     occ j      vir a      vir b          v   
    ------------------------------------------------------
     5 (A) A              26 (A) A                -0.7375
     5 (A) B              26 (A) B                 0.4190
    ------------------------------------------------------
  ----------------------------------------------------------------------------


  Excited state 17 (A)                                             [converged]
  ----------------------------------------------------------------------------
  Term symbol:  18 (-) A                                    R^2 =  6.80548e-13

  Total energy:                                           -424.2491712628 a.u.
  Excitation energy:                                             316.645454 eV

  Osc. strength:                                                      0.008949
  Trans. dip. moment [a.u.]:           [   0.009102,    0.029271,   -0.014629]
  <i|r^2|0> [a.u.]:                    [  -0.032041,    0.268758,   -0.006163]

  V1^2 = 0.8949, V2^2 = 0.1051

  Important amplitudes:
     core i     occ j      vir a      vir b          v   
    ------------------------------------------------------
     5 (A) B              26 (A) B                -0.7154
     5 (A) A              26 (A) A                -0.3977
    ------------------------------------------------------
  ----------------------------------------------------------------------------


  Excited state 18 (A)                                             [converged]
  ----------------------------------------------------------------------------
  Term symbol:  19 (-) A                                    R^2 =  9.19795e-08

  Total energy:                                           -423.7616690311 a.u.
  Excitation energy:                                             329.911064 eV

  Osc. strength:                                                      0.000051
  Trans. dip. moment [a.u.]:           [   0.002071,   -0.001115,   -0.000869]
  <i|r^2|0> [a.u.]:                    [  -0.001472,   -0.016954,    0.003018]

  V1^2 = 0.8863, V2^2 = 0.1137

  Important amplitudes:
     core i     occ j      vir a      vir b          v   
    ------------------------------------------------------
     5 (A) A              30 (A) A                -0.9199
     5 (A) A              36 (A) A                 0.1757
    ------------------------------------------------------
  ----------------------------------------------------------------------------


  Excited state 19 (A)                                             [converged]
  ----------------------------------------------------------------------------
  Term symbol:  20 (-) A                                    R^2 =  4.25222e-08

  Total energy:                                           -423.7359255870 a.u.
  Excitation energy:                                             330.611579 eV

  Osc. strength:                                                      0.000057
  Trans. dip. moment [a.u.]:           [  -0.001155,   -0.000283,   -0.002377]
  <i|r^2|0> [a.u.]:                    [   0.001073,   -0.004627,    0.004533]

  V1^2 = 0.8883, V2^2 = 0.1117

  Important amplitudes:
     core i     occ j      vir a      vir b          v   
    ------------------------------------------------------
     5 (A) A              31 (A) A                 0.9166
     5 (A) A              37 (A) A                -0.1758
    ------------------------------------------------------
  ----------------------------------------------------------------------------


  Excited state 20 (A)                                             [converged]
  ----------------------------------------------------------------------------
  Term symbol:  21 (-) A                                    R^2 =  7.18814e-07

  Total energy:                                           -423.7289770171 a.u.
  Excitation energy:                                             330.800659 eV

  Osc. strength:                                                      0.000084
  Trans. dip. moment [a.u.]:           [   0.001367,    0.000253,    0.002913]
  <i|r^2|0> [a.u.]:                    [  -0.001263,    0.004677,   -0.005308]

  V1^2 = 0.8888, V2^2 = 0.1112

  Important amplitudes:
     core i     occ j      vir a      vir b          v   
    ------------------------------------------------------
     5 (A) B              30 (A) B                 0.9167
     5 (A) B              36 (A) B                 0.1621
    ------------------------------------------------------
  ----------------------------------------------------------------------------


--------------------------------------------------------------------------------
  Time of ADC calculation:  CPU 1284.67 s  wall 1295.01 s
================================================================================
 
 --------------------------------------------------------------
 
                    Orbital Energies (a.u.)
 --------------------------------------------------------------
 
 Alpha MOs
 -- Occupied --
-26.846 -26.700 -26.699 -26.699 -11.933  -2.164  -2.080  -2.025
 -2.022  -1.323  -1.268  -1.232  -1.214  -1.194  -1.143  -1.044
 -1.039  -1.039  -1.011  -1.007  -0.984
 -- Virtual --
 -0.081   0.108   0.202   0.214   0.387   0.418   0.425   0.432
  0.926   0.959   0.968   1.031   1.033   1.084   1.238   1.274
  1.289   1.295   1.317   1.318   1.334   1.336   1.447   1.568
  1.572   1.676   1.701   1.713   1.798   1.799   1.804   1.961
  1.971   1.987   1.987   2.044   2.046   2.070   2.082   2.179
  2.470   2.671   2.691   2.833   2.975   2.987   3.233   3.236
  3.284   3.964   4.409   4.808   4.850   6.126
 
 Beta MOs
 -- Occupied --
-26.795 -26.699 -26.699 -26.699 -11.934  -2.141  -2.026  -2.021
 -1.912  -1.311  -1.213  -1.210  -1.204  -1.099  -1.040  -1.037
 -1.014  -1.011  -1.001  -0.983
 -- Virtual --
 -0.319  -0.071   0.112   0.215   0.222   0.394   0.423   0.426
  0.432   0.969   0.986   1.015   1.032   1.034   1.093   1.278
  1.284   1.302   1.314   1.321   1.334   1.344   1.374   1.457
  1.598   1.603   1.686   1.745   1.745   1.803   1.809   1.810
  1.978   1.984   1.993   1.994   2.054   2.075   2.082   2.090
  2.186   2.476   2.675   2.691   2.852   2.976   2.987   3.233
  3.237   3.285   3.988   4.412   4.809   4.851   6.129
 --------------------------------------------------------------
 
          Ground-State Mulliken Net Atomic Charges

     Atom                 Charge (a.u.)    Spin (a.u.)
  --------------------------------------------------------
      1 C                     1.342117      -0.022543
      2 F                    -0.170730       0.005754
      3 F                    -0.169974       0.005143
      4 F                     0.153200       1.015823
      5 F                    -0.154613      -0.004177
  --------------------------------------------------------
  Sum of atomic charges =     1.000000
  Sum of spin   charges =     1.000000

 -----------------------------------------------------------------
                    Cartesian Multipole Moments
 -----------------------------------------------------------------
    Charge (ESU x 10^10)
                 4.8032
    Dipole Moment (Debye)
         X      -3.7939      Y      10.1984      Z       0.3510
       Tot      10.8869
    Quadrupole Moments (Debye-Ang)
        XX     -17.9431     XY      -7.3473     YY       2.5715
        XZ      -0.8380     YZ      -0.0989     ZZ     -21.3193
    Octopole Moments (Debye-Ang^2)
       XXX      40.7471    XXY     -44.9206    XYY      -0.9254
       YYY     -92.4462    XXZ       1.7046    XYZ      -0.9616
       YYZ      -1.4311    XZZ      14.1208    YZZ     -50.6275
       ZZZ       0.3575
    Hexadecapole Moments (Debye-Ang^3)
      XXXX    -125.4682   XXXY      99.7147   XXYY    -143.9218
      XYYY      68.5258   YYYY    -639.6165   XXXZ      -2.6778
      XXYZ       2.7868   XYYZ      -1.3115   YYYZ      -3.9721
      XXZZ     -32.4301   XYZZ      33.4496   YYZZ    -143.6471
      XZZZ       0.1910   YZZZ       1.6218   ZZZZ     -69.5796
 -----------------------------------------------------------------
Archival summary:
1\1\tp-linux1\SP\HF\6-31G*\41(1+,2)\thomas\ThuMar2312:20:312017ThuMar2312:20:312017\0\\#,HF,6-31G*,\\1,2\C\F,1,1.22757\F,1,1.23774,2,117.621\F,1,1.23826,2,117.588,3,148.338,0\F,1,1.5904,2,100.09,3,-105.865,0\\HF=-435.140174\\@

 Total job time:  1312.47s(wall), 1294.73s(cpu) 
 Thu Mar 23 12:20:31 2017

        *************************************************************
        *                                                           *
        *  Thank you very much for using Q-Chem.  Have a nice day.  *
        *                                                           *
        *************************************************************


0 sent ACK to 0 
now end server 0 ... 
cleanup process ... done
