
Running Job 1 of 1 ddtraj1t47.inp
qchem ddtraj1t47.inp_18204.0 /scratch/qchem/qchem18204/ 1
/mnt/software/qchem/bin/mpi/mpirun_qchem -machinefile /mnt/software/qchem/bin/mpi/machines -np 1 /mnt/software/qchem/exe/qcprog.exe ddtraj1t47.inp_18204.0 /scratch/qchem/qchem18204/

Process 0 of 1 is on tp-linux1 - thread support 0
initial socket setup ...start
initial socket setup ...done 
now start server 0 ... 

cmd = ssh tp-linux1 /mnt/software/qchem/bin/get_hostid 708685712 > /scratch/qchem/qchem18204/lic.dat
                  Welcome to Q-Chem
     A Quantum Leap Into The Future Of Chemistry


 Q-Chem 4.3, Q-Chem, Inc., Pleasanton, CA (2015)

 Y. Shao,  Z. Gan,  E. Epifanovsky,  A. T. B. Gilbert,  M. Wormit,  
 J. Kussmann,  A. W. Lange,  A. Behn,  J. Deng,  X. Feng,  D. Ghosh,  
 M. Goldey,  P. R. Horn,  L. D. Jacobson,  I. Kaliman,  R. Z. Khaliullin,  
 T. Kus,  A. Landau,  J. Liu,  E. I. Proynov,  Y. M. Rhee,  R. M. Richard,  
 M. A. Rohrdanz,  R. P. Steele,  E. J. Sundstrom,  H. L. Woodcock III,  
 P. M. Zimmerman,  D. Zuev,  B. Albrecht,  E. Alguire,  B. Austin,  
 S. A. Baeppler,  G. J. O. Beran,  Y. A. Bernard,  E. Berquist,  
 K. Brandhorst,  K. B. Bravaya,  S. T. Brown,  D. Casanova,  C.-M. Chang,  
 Y. Chen,  S. H. Chien,  K. D. Closser,  D. L. Crittenden,  M. Diedenhofen,  
 R. A. DiStasio Jr.,  H. Do,  A. D. Dutoi,  R. G. Edgar,  P.-T. Fang,  
 S. Fatehi,  Q. Feng,  L. Fusti-Molnar,  A. Ghysels,  
 A. Golubeva-Zadorozhnaya,  J. Gomes,  A. Gunina,  M. W. D. Hanson-Heine,  
 P. H. P. Harbach,  A. W. Hauser,  E. G. Hohenstein,  Z. C. Holden,  K. Hui,  
 T.-C. Jagau,  H. Ji,  B. Kaduk,  K. Khistyaev,  Jaehoon Kim,  Jihan Kim,  
 R. A. King,  P. Klunzinger,  D. Kosenkov,  T. Kowalczyk,  C. M. Krauter,  
 K. U. Lao,  A. Laurent,  K. V. Lawler,  S. Lehtola,  S. V. Levchenko,  
 C. Y. Lin,  Y.-S. Lin,  F. Liu,  E. Livshits,  R. C. Lochan,  A. Luenser,  
 P. Manohar,  S. F. Manzer,  S.-P. Mao,  N. Mardirossian,  A. V. Marenich,  
 L. A. Martinez-Martinez,  S. A. Maurer,  N. J. Mayhall,  K. Nanda,  
 C. M. Oana,  R. Olivares-Amaya,  D. P. O'Neill,  J. A. Parkhill,  
 T. M. Perrine,  R. Peverati,  P. A. Pieniazek,  F. Plasser,  A. Prociuk,  
 D. R. Rehn,  E. Rosta,  N. J. Russ,  N. Sergueev,  S. M. Sharada,  
 S. Sharma,  D. W. Small,  A. Sodt,  T. Stauch,  T. Stein,  D. Stuck,  
 Y.-C. Su,  A. J. W. Thom,  T. Tsuchimochi,  L. Vogt,  O. Vydrov,  T. Wang,  
 M. A. Watson,  J. Wenzel,  A. White,  C. F. Williams,  V. Vanovschi,  
 S. Yeganeh,  S. R. Yost,  Z.-Q. You,  I. Y. Zhang,  X. Zhang,  Y. Zhao,  
 B. R. Brooks,  G. K. L. Chan,  D. M. Chipman,  C. J. Cramer,  
 W. A. Goddard III,  M. S. Gordon,  W. J. Hehre,  A. Klamt,  
 H. F. Schaefer III,  M. W. Schmidt,  C. D. Sherrill,  D. G. Truhlar,  
 A. Warshel,  X. Xu,  A. Aspuru-Guzik,  R. Baer,  A. T. Bell,  N. A. Besley,  
 J.-D. Chai,  A. Dreuw,  B. D. Dunietz,  T. R. Furlani,  S. R. Gwaltney,  
 C.-P. Hsu,  Y. Jung,  J. Kong,  D. S. Lambrecht,  W. Liang,  C. Ochsenfeld,  
 V. A. Rassolov,  L. V. Slipchenko,  J. E. Subotnik,  T. Van Voorhis,  
 J. M. Herbert,  A. I. Krylov,  P. M. W. Gill,  M. Head-Gordon

 Contributors to earlier versions of Q-Chem not listed above: 
 R. D. Adamson,  J. Baker,  E. F. C. Byrd,  A. K. Chakraborty,  C.-L. Cheng,  
 H. Dachsel,  R. J. Doerksen,  G. Hawkins,  A. Heyden,  S. Hirata,  
 G. Kedziora,  F. J. Keil,  C. Kelley,  P. P. Korambath,  W. Kurlancheek,  
 A. M. Lee,  M. S. Lee,  D. Liotard,  I. Lotan,  P. E. Maslen,  N. Nair,  
 D. Neuhauser,  R. Olson,  B. Peters,  J. Ritchie,  N. E. Schultz,  
 N. Shenvi,  A. C. Simmonett,  K. S. Thanthiriwatte,  Q. Wu,  W. Zhang

 Please cite Q-Chem as follows:
 Y. Shao et al., Mol. Phys. 113, 184-215 (2015)
 DOI: 10.1080/00268976.2014.952696

 Q-Chem 4.3.0 for Intel X86 Linux

 Parts of Q-Chem use Armadillo 5.200.1 (Boston Tea Smuggler).
 http://arma.sourceforge.net/

 Q-Chem begins on Wed Mar 22 19:21:28 2017  

Host: 
0

     Scratch files written to /scratch/qchem/qchem18204//
 Nov1815 1189b_ 19540  19532 5443   
 Parallel job on  1  processors
Processing $rem in /mnt/software/qchem/config/preferences.
 MEM_TOTAL  2000 

Checking the input file for inconsistencies... 	...done.

--------------------------------------------------------------
User input:
--------------------------------------------------------------
$comment
XAS calculation for valence excited states for CF4+ using cvs-adc(2) + 6-31G* basis set
job 1 - determination of HF orbitals
$end

$molecule
1 2
6  -0.482215  2.952733  -0.24201
9  0.676462  2.612346  -0.112103
9  -1.03533  3.545695  0.662021
9  -1.564953  -0.020146  0.925265
9  -1.010673  2.879882  -1.322322
$end

$comment
cvs-adc(2) calculation
$end

$rem
mem_total 3000
mem_static 1500
sym_ignore true
method cvs-adc(2)
basis 6-31G*
ee_singlets 20
cc_rest_occ 5                  !only excitations from the lowest N orbitals
unrestricted  true
max_scf_cycles 200
SCF_ALGORITHM = DIIS_GDM
SCF_CONVERGENCE = 7
THRESH = 10
$end
--------------------------------------------------------------
 ----------------------------------------------------------------
             Standard Nuclear Orientation (Angstroms)
    I     Atom           X                Y                Z
 ----------------------------------------------------------------
    1      C      -0.4822150000     2.9527330000    -0.2420100000
    2      F       0.6764620000     2.6123460000    -0.1121030000
    3      F      -1.0353300000     3.5456950000     0.6620210000
    4      F      -1.5649530000    -0.0201460000     0.9252650000
    5      F      -1.0106730000     2.8798820000    -1.3223220000
 ----------------------------------------------------------------
 Nuclear Repulsion Energy =   175.9167627385 hartrees
 There are       21 alpha and       20 beta electrons
 Requested basis set is 6-31G(d)
 There are 20 shells and 75 basis functions

 Total QAlloc Memory Limit   3000 MB
 Mega-Array Size      1467 MB
 MEM_STATIC part      1500 MB

                       Distance Matrix (Angstroms)
             C (  1)   F (  2)   F (  3)   F (  4)
   F (  2)  1.214608
   F (  3)  1.214418  2.097770
   F (  4)  3.372367  3.609721  3.614557
   F (  5)  1.204844  2.093473  2.093211  3.710665
 
 tim1(1): 
  0.000000000000000E+000
 tim1(2): 
  0.000000000000000E+000
 A cutoff of  1.0D-10 yielded    183 shell pairs
 There are      2806 function pairs
 
 -------------------------------------------------------
 OpenMP Integral Computing Module                       
 Release: version 1.0, May 2013, Q-Chem Inc. Pittsburgh 
 -------------------------------------------------------
 Integral Job Info:
 Integral job number is                      11
 Integral operator is                         1
 short-range coefficients                     0
 long-range coefficients              100000000
 Omega coefficients                           0
 if combine SR and LR in K                    0
 Integral screening is                        0
 Integral computing path is                   2
 max size of driver memory is            800000
 size of driver memory is                593474
 size of scratch memory is              2260544
 max col of scratch BK array               1296
 max len of scratch array in speh3          155
 max len of scratch index in speh4           18
 max int batch size is                      520
 min int batch size is                       52
 fixed nKL is                                52
 max L of basis functions is                  2
 order of int derivative is                   0
 number of shells is                         20
 number of basis is                          75
 number of cartesian basis is                75
 number of contracted shell pairs           183
 number of primitive shell pairs            932
 maxK2 (contraction) of shell pair           36
 max number of K2 of shell pair               1
 max number of CS2 of shell pair             32
 max number of PS2 of shell pair            192
 mem total for path MDJ                   17476
 -------------------------------------------------------
 Smallest overlap matrix eigenvalue = 3.92E-03

 Scale SEOQF with 1.000000e-01/1.000000e-01/1.000000e+00

 Standard Electronic Orientation quadrupole field applied
 Nucleus-field energy     =    -0.0000000066 hartrees
 Guess from superposition of atomic densities
 Warning:  Energy on first SCF cycle will be non-variational
 An unrestricted Hartree-Fock SCF calculation will be
 performed using Pulay DIIS + Geometric Direct Minimization
 SCF converges when RMS gradient is below 1.0E-07
 ---------------------------------------
  Cycle       Energy         DIIS Error
 ---------------------------------------
    1    -436.4680609963      9.38E-02
    2    -434.9954325623      1.76E-02
    3    -435.1446599695      7.98E-03 Done DIIS. Switching to GDM
    4    -435.1736661767      1.01E-02 Normal BFGS step
    5    -435.1745847214      8.61E-03 Normal BFGS step
    6    -435.1748972179      1.62E-03 Normal BFGS step
    7    -435.1749170524      1.40E-03 Normal BFGS step
    8    -435.1749216491      1.38E-03 Normal BFGS step
    9    -435.1749262212      1.36E-03 Normal BFGS step
   10    -435.1749366560      1.30E-03 Normal BFGS step
   11    -435.1749582230      1.74E-03 Normal BFGS step
   12    -435.1749996968      2.44E-03 Normal BFGS step
   13    -435.1750513963      2.32E-03 Normal BFGS step
   14    -435.1750846676      1.20E-03 Normal BFGS step
   15    -435.1750931200      2.10E-04 Normal BFGS step
   16    -435.1750935994      1.27E-04 Normal BFGS step
   17    -435.1750936659      2.81E-05 Normal BFGS step
   18    -435.1750936718      5.05E-06 Normal BFGS step
   19    -435.1750936719      3.44E-06 Normal BFGS step
   20    -435.1750936719      3.44E-06 Normal BFGS step
   21    -435.1750936720      3.44E-06 Normal BFGS step
   22    -435.1750936720      3.44E-06 Normal BFGS step
   23    -435.1750936722      5.54E-06 Normal BFGS step
   24    -435.1750936726      9.84E-06 Normal BFGS step
   25    -435.1750936736      1.74E-05 Normal BFGS step
   26    -435.1750936762      2.94E-05 Normal BFGS step
   27    -435.1750936825      4.82E-05 Normal BFGS step
   28    -435.1750936987      7.79E-05 Normal BFGS step
   29    -435.1750937384      1.25E-04 Normal BFGS step
   30    -435.1750937866      1.73E-04 Normal BFGS step
   31    -435.1750938881      1.37E-04 Normal BFGS step
   32    -435.1750936612      4.23E-04 Line search: overstep
   33    -435.1750940751      1.58E-04 Normal BFGS step
   34    -435.1750942879      1.67E-04 Normal BFGS step
   35    -435.1750943415      9.78E-05 Normal BFGS step
   36    -435.1750944503      3.20E-04 Normal BFGS step
   37    -435.1750945938      5.28E-05 Normal BFGS step
   38    -435.1750947040      5.81E-05 Normal BFGS step
   39    -435.1750920391      1.01E-03 Line search: overstep
   40    -435.1750947525      8.78E-05 Normal BFGS step
   41    -435.1750947184      2.81E-04 Line search: overstep
   42    -435.1750948288      1.71E-04 Normal BFGS step
   43    -435.1750949039      2.03E-04 Normal BFGS step
   44    -435.1750950298      1.18E-04 Normal BFGS step
   45    -435.1750951052      2.14E-04 Normal BFGS step
   46    -435.1750952359      8.50E-05 Normal BFGS step
   47    -435.1750953121      2.16E-04 Normal BFGS step
   48    -435.1750954559      6.51E-05 Normal BFGS step
   49    -435.1750955593      1.36E-04 Normal BFGS step
   50    -435.1750956827      1.83E-04 Normal BFGS step
   51    -435.1750960629      8.14E-05 Normal BFGS step
   52    -435.1750923978      3.12E-03 Line search: overstep
   53    -435.1750961220      1.33E-04 Normal BFGS step
   54    -435.1750961457      5.54E-04 Normal BFGS step
   55    -435.1750965522      9.12E-05 Normal BFGS step
   56    -435.1750967519      3.93E-05 Normal BFGS step
   57    -435.1750951740      2.49E-03 Line search: overstep
   58    -435.1750969118      9.22E-05 Normal BFGS step
   59    -435.1750968639      1.11E-03 Line search: overstep
   60    -435.1750970622      1.86E-04 Normal BFGS step
   61    -435.1750972006      1.47E-04 Normal BFGS step
   62    -435.1750972792      2.68E-05 Normal BFGS step
   63    -435.1750972941      1.20E-04 Normal BFGS step
   64    -435.1750973100      4.54E-05 Normal BFGS step
   65    -435.1750973182      3.18E-05 Normal BFGS step
   66    -435.1750973751      6.66E-05 Normal BFGS step
   67    -435.1750974776      1.52E-04 Normal BFGS step
   68    -435.1750975303      2.47E-04 Normal BFGS step
   69    -435.1750977304      1.91E-04 Normal BFGS step
   70    -435.1750978609      1.23E-04 Normal BFGS step
   71    -435.1750978774      3.19E-04 Normal BFGS step
   72    -435.1750979640      7.24E-05 Normal BFGS step
   73    -435.1750979954      6.94E-05 Normal BFGS step
   74    -435.1750980274      1.35E-04 Normal BFGS step
   75    -435.1750980639      1.50E-04 Normal BFGS step
   76    -435.1750981833      1.55E-04 Normal BFGS step
   77    -435.1750982884      5.33E-05 Normal BFGS step
   78    -435.1750982506      8.45E-04 Line search: overstep
   79    -435.1750983411      1.05E-04 Normal BFGS step
   80    -435.1750984129      1.89E-04 Normal BFGS step
   81    -435.1750985024      3.84E-05 Normal BFGS step
   82    -435.1750985558      1.05E-04 Normal BFGS step
   83    -435.1750985914      9.95E-05 Normal BFGS step
   84    -435.1750986384      3.50E-05 Normal BFGS step
   85    -435.1750985255      8.68E-04 Line search: overstep
   86    -435.1750986674      3.62E-05 Normal BFGS step
   87    -435.1750984214      1.11E-03 Line search: overstep
   88    -435.1750986813      4.81E-05 Normal BFGS step
   89    -435.1750986964      1.36E-04 Normal BFGS step
   90    -435.1750987169      4.64E-05 Normal BFGS step
   91    -435.1750987278      3.43E-05 Normal BFGS step
   92    -435.1750987492      7.86E-05 Normal BFGS step
   93    -435.1750987625      1.97E-05 Normal BFGS step
   94    -435.1750987762      2.37E-05 Normal BFGS step
   95    -435.1750987836      5.87E-05 Normal BFGS step
   96    -435.1750987910      8.66E-06 Normal BFGS step
   97    -435.1750987949      1.08E-05 Normal BFGS step
   98    -435.1750987963      3.80E-05 Normal BFGS step
   99    -435.1750987989      8.39E-06 Normal BFGS step
  100    -435.1750987999      5.19E-06 Normal BFGS step
  101    -435.1750988007      5.06E-06 Normal BFGS step
  102    -435.1750988008      2.09E-06 Normal BFGS step
  103    -435.1750988008      8.43E-07 Normal BFGS step
  104    -435.1750988008      2.78E-07 Normal BFGS step
  105    -435.1750988008      1.88E-07 Normal BFGS step
  106    -435.1750988008      2.70E-07 Normal BFGS step
  107    -435.1750988008      2.64E-07 Normal BFGS step
  108    -435.1750988008      2.17E-07 Normal BFGS step
  109    -435.1750988008      1.60E-07 Normal BFGS step
  110    -435.1750988008      8.01E-08 Convergence criterion met
 ---------------------------------------
 <S^2> = 0.7528
 SCF time:  CPU 15.50 s  wall 26.13 s
 SCF   energy in the final basis set = -435.1750988008
 Total energy in the final basis set = -435.1750988008
================================================================================
|                                                                              |
|                                 A D C  M A N                                 |
|                                                                              |
 ------------------------------------------------------------------------------ 
|                                                                              |
| Components:                                                                  |
|                                                                              |
| - libvmm - 1.2-release                                                       |
|   Authors:                                                                   |
|   Evgeny Epifanovsky, Ilya Kaliman                                           |
|                                                                              |
| - libtensor - 2.4-trunk                                                      |
|   Authors:                                                                   |
|   Evgeny Epifanovsky, Michael Wormit, Dmitry Zuev, Sam Manzer                |
|                                                                              |
| - libwfa - 1.1-beta                                                          |
|   Authors:                                                                   |
|   Felix Plasser, Stefanie Baeppler, Benjamin Thomitzni, Michael Wormit       |
|                                                                              |
| - libadc - 1.0-beta                                                          |
|   Authors:                                                                   |
|   Michael Wormit, Philipp H. P. Harbach, Caroline Krauter, Dirk Rehn,        |
|   Matthias Schneider, Jan Wenzel                                             |
|                                                                              |
| - adcman - 2.4-beta                                                          |
|   Authors:                                                                   |
|   Michael Wormit, Philipp H. P. Harbach, Caroline Krauter, Dirk Rehn,        |
|   Jan Wenzel, Andreas Dreuw                                                  |
|                                                                              |
| Authors of earlier versions of ADCMAN:                                       |
| Andreas Dreuw, Jan Hendrik Starcke, Dirk Rehn, Michael Wormit                |
|                                                                              |
================================================================================

 
 Alpha MOs, Unrestricted
 -- Occupied --                  
-26.753 -26.748 -26.748 -26.566 -11.952  -2.180  -2.075  -2.069
  1 A     2 A     3 A     4 A     5 A     6 A     7 A     8 A                  
 -1.818  -1.328  -1.249  -1.248  -1.196  -1.077  -1.077  -1.051
  9 A    10 A    11 A    12 A    13 A    14 A    15 A    16 A                  
 -1.048  -1.025  -0.986  -0.880  -0.878
 17 A    18 A    19 A    20 A    21 A                                          
 -- Virtual --                   
 -0.191   0.003   0.207   0.209   0.330   0.412   0.418   0.427
 22 A    23 A    24 A    25 A    26 A    27 A    28 A    29 A                  
  0.920   1.003   1.008   1.011   1.128   1.130   1.205   1.242
 30 A    31 A    32 A    33 A    34 A    35 A    36 A    37 A                  
  1.261   1.265   1.275   1.287   1.287   1.305   1.373   1.430
 38 A    39 A    40 A    41 A    42 A    43 A    44 A    45 A                  
  1.635   1.636   1.746   1.748   1.779   1.859   1.877   1.892
 46 A    47 A    48 A    49 A    50 A    51 A    52 A    53 A                  
  1.898   1.900   1.924   1.954   1.956   1.960   1.967   2.058
 54 A    55 A    56 A    57 A    58 A    59 A    60 A    61 A                  
  2.107   2.282   2.686   2.694   3.010   3.022   3.222   3.234
 62 A    63 A    64 A    65 A    66 A    67 A    68 A    69 A                  
  3.237   3.567   4.181   4.668   4.878   4.905
 70 A    71 A    72 A    73 A    74 A    75 A                                  
 
 Beta MOs, Unrestricted
 -- Occupied --                  
-26.753 -26.748 -26.748 -26.518 -11.952  -2.180  -2.075  -2.069
  1 A     2 A     3 A     4 A     5 A     6 A     7 A     8 A                  
 -1.626  -1.328  -1.249  -1.248  -1.196  -1.077  -1.077  -1.051
  9 A    10 A    11 A    12 A    13 A    14 A    15 A    16 A                  
 -1.048  -1.025  -0.827  -0.826
 17 A    18 A    19 A    20 A                                                  
 -- Virtual --                   
 -0.191  -0.067   0.003   0.207   0.209   0.331   0.412   0.418
 21 A    22 A    23 A    24 A    25 A    26 A    27 A    28 A                  
  0.427   0.950   1.003   1.009   1.011   1.128   1.130   1.260
 29 A    30 A    31 A    32 A    33 A    34 A    35 A    36 A                  
  1.263   1.264   1.287   1.287   1.299   1.305   1.374   1.427
 37 A    38 A    39 A    40 A    41 A    42 A    43 A    44 A                  
  1.436   1.635   1.637   1.746   1.748   1.779   1.872   1.898
 45 A    46 A    47 A    48 A    49 A    50 A    51 A    52 A                  
  1.900   1.955   1.956   1.965   1.970   1.987   1.990   2.002
 53 A    54 A    55 A    56 A    57 A    58 A    59 A    60 A                  
  2.058   2.107   2.282   2.686   2.694   3.010   3.022   3.223
 61 A    62 A    63 A    64 A    65 A    66 A    67 A    68 A                  
  3.234   3.237   3.607   4.181   4.669   4.878   4.905
 69 A    70 A    71 A    72 A    73 A    74 A    75 A                          
 

--------------------------------------------------------------------------------
                                   HF Summary                                   
--------------------------------------------------------------------------------
  Energy:                                                 -435.1750988008 a.u.
  Dip. moment [a.u.]:                  [ -54.422601,  181.362941,    0.293555]
  Total dipole [Debye]:                                             481.286493
  <r^2> [a.u.]:                        [ 179.889974, 1061.398548,  114.704583]
  Total <r^2> [a.u.]:                                              1355.993106
--------------------------------------------------------------------------------

--------------------------------------------------------------------------------
                                 MP(2) Summary                                  
--------------------------------------------------------------------------------
  Energy contribution:                                      -0.7383524451 a.u.
  Total energy:                                           -435.9134512459 a.u.
  Dip. moment [a.u.]:                  [ -54.436237,  181.331189,    0.301754]
  Total dipole [Debye]:                                             481.219191
  <r^2> [a.u.]:                        [ 179.685076, 1061.183807,  114.451141]
  Total <r^2> [a.u.]:                                              1355.320025
--------------------------------------------------------------------------------
  Starting Davidson ... 
--------------------------------------------------------------------------------
   It NVec Conv  Avg. Norm  Max. Norm  Conv. states           Remark
--------------------------------------------------------------------------------
        20    0  2.088e-01  1.147e+00 10.9783 n n n n n n n n Guess.
    1   40    0  5.444e-02  9.812e-01 10.8222 n n n n n n n n 
    2   60    0  9.185e-03  1.376e-01 10.8208 n n n n n n n n 
    3   80    0  2.604e-03  3.714e-02 10.8207 n n n n n n n n 
    4  100    0  1.084e-03  1.615e-02 10.8207 n n n n n n n n 
    5   40    0  7.380e-04  1.110e-02 10.8207 n n n n n n n n Subspace collapsed.
    6   60    0  1.263e-03  2.437e-02 10.8207 n n n n n n n n 
    7   80    0  1.486e-03  2.943e-02 10.8207 n n n n n n n n 
    8  100    3  1.624e-03  3.220e-02 10.8207 y y n n n n y n 
    9   40    6  9.376e-04  1.860e-02 10.8207 y y n n y y y y Subspace collapsed.
   10   60    8  7.343e-04  1.453e-02 10.8207 y y n y y y y y 
   11   80   10  5.865e-04  1.147e-02 10.8207 y y y y y y y y 
   12  100   16  6.141e-04  1.200e-02 10.8207 y y y y y y y y 
   13   40   17  4.104e-04  8.006e-03 10.8207 y y y y y y y y Subspace collapsed.
   14   60   17  4.853e-04  9.559e-03 10.8207 y y y y y y y y 
   15   80   17  7.176e-04  1.421e-02 10.8207 y y y y y y y y 
   16  100   17  8.111e-04  1.576e-02 10.8207 y y y y y y y y 
   17   39   17  5.674e-04  1.104e-02 10.8207 y y y y y y y y Subspace collapsed.
   18   57   17  3.949e-04  7.651e-03 10.8207 y y y y y y y y 
   19   73   17  2.833e-04  5.399e-03 10.8207 y y y y y y y y 
   20   74   17  2.833e-04  5.399e-03 10.8207 y y y y y y y y 
   21   87   17  2.946e-04  5.632e-03 10.8207 y y y y y y y y 
   22   99   17  5.344e-04  9.962e-03 10.8207 y y y y y y y y 
   23  100   17  5.459e-04  1.017e-02 10.8207 y y y y y y y y 
   24   31   17  2.527e-04  4.753e-03 10.8207 y y y y y y y y Subspace collapsed.
   25   42   17  2.723e-04  5.093e-03 10.8207 y y y y y y y y 
   26   53   17  2.492e-04  4.626e-03 10.8207 y y y y y y y y 
   27   54   17  2.485e-04  4.612e-03 10.8207 y y y y y y y y 
   28   55   17  2.475e-04  4.595e-03 10.8207 y y y y y y y y 
   29   55   17  2.475e-04  4.595e-03 10.8207 y y y y y y y y 
   30   75   17  3.418e-04  6.215e-03 10.8207 y y y y y y y y 
   31   75   17  3.418e-04  6.215e-03 10.8207 y y y y y y y y 
   32   87   17  3.943e-04  6.667e-03 10.8207 y y y y y y y y 
   33   91   17  7.536e-04  1.262e-02 10.8207 y y y y y y y y 
   34   94   17  2.413e-03  4.781e-02 10.8207 y y y y y y y y 
   35   97   17  1.567e-03  3.098e-02 10.8207 y y y y y y y y 
   36  100   17  1.025e-03  2.023e-02 10.8207 y y y y y y y y 
   37   23   17  5.461e-04  1.078e-02 10.8207 y y y y y y y y Subspace collapsed.
   38   26   17  4.144e-04  8.179e-03 10.8207 y y y y y y y y 
   39   29   17  3.441e-04  6.794e-03 10.8207 y y y y y y y y 
   40   32   17  2.801e-04  5.534e-03 10.8207 y y y y y y y y 
   41   35   17  2.100e-04  4.152e-03 10.8207 y y y y y y y y 
   42   38   17  1.463e-04  2.895e-03 10.8207 y y y y y y y y 
   43   41   17  7.965e-05  1.576e-03 10.8207 y y y y y y y y 
   44   44   17  4.681e-05  9.260e-04 10.8207 y y y y y y y y 
   45   47   17  3.681e-05  7.280e-04 10.8207 y y y y y y y y 
   46   50   17  3.916e-05  7.755e-04 10.8207 y y y y y y y y 
   47   53   17  2.990e-05  5.929e-04 10.8207 y y y y y y y y 
   48   56   17  2.199e-05  4.364e-04 10.8207 y y y y y y y y 
   49   59   17  2.005e-05  3.983e-04 10.8207 y y y y y y y y 
   50   62   17  2.153e-05  4.280e-04 10.8207 y y y y y y y y 
   51   65   17  2.169e-05  4.317e-04 10.8207 y y y y y y y y 
   52   68   17  1.328e-05  2.644e-04 10.8207 y y y y y y y y 
   53   71   17  9.146e-06  1.822e-04 10.8207 y y y y y y y y 
   54   74   17  9.507e-06  1.895e-04 10.8207 y y y y y y y y 
   55   77   17  1.145e-05  2.285e-04 10.8207 y y y y y y y y 
   56   80   17  1.141e-05  2.278e-04 10.8207 y y y y y y y y 
   57   83   17  1.373e-05  2.742e-04 10.8207 y y y y y y y y 
   58   86   17  1.565e-05  3.127e-04 10.8207 y y y y y y y y 
   59   89   17  9.020e-06  1.803e-04 10.8207 y y y y y y y y 
--------------------------------------------------------------------------------
  Davidson Summary: 
 ------------------------------------------------------------
  State  0: excitation energy =  10.8207 a.u.   (converged)
  State  1: excitation energy =  10.8912 a.u.   (converged)
  State  2: excitation energy =  11.1431 a.u.   (converged)
  State  3: excitation energy =  11.1983 a.u.   (converged)
  State  4: excitation energy =  11.2394 a.u.   (converged)
  State  5: excitation energy =  11.2480 a.u.   (converged)
  State  6: excitation energy =  11.2910 a.u.   (converged)
  State  7: excitation energy =  11.3202 a.u.   (converged)
  State  8: excitation energy =  11.3282 a.u.   (converged)
  State  9: excitation energy =  11.5246 a.u.   (converged)
  State 10: excitation energy =  11.5320 a.u.   (converged)
  State 11: excitation energy =  11.5524 a.u.   (converged)
  State 12: excitation energy =  11.5764 a.u.   (converged)
  State 13: excitation energy =  11.5774 a.u.   (converged)
  State 14: excitation energy =  11.5901 a.u.   (converged)
  State 15: excitation energy =  11.5917 a.u.   (converged)
  State 16: excitation energy =  11.5950 a.u.   (converged)
  State 17: excitation energy =  12.2229 a.u.   (not converged)
  State 18: excitation energy =  12.2271 a.u.   (not converged)
  State 19: excitation energy =  12.2298 a.u.   (not converged)
 ------------------------------------------------------------


--------------------------------------------------------------------------------
                             Excited State Summary
--------------------------------------------------------------------------------

  Excited state  1 (A)                                             [converged]
  ----------------------------------------------------------------------------
  Term symbol:  2 (-) A                                     R^2 =  1.35781e-13

  Total energy:                                           -425.0927294522 a.u.
  Excitation energy:                                             294.446815 eV

  Osc. strength:                                                      0.000000
  Trans. dip. moment [a.u.]:           [   0.000001,    0.000003,   -0.000001]
  <i|r^2|0> [a.u.]:                    [  -0.000002,    0.000027,    0.000001]

  V1^2 = 0.9583, V2^2 = 0.0417

  Important amplitudes:
     core i     occ j      vir a      vir b          v   
    ------------------------------------------------------
     5 (A) B              21 (A) B                -0.6536
     5 (A) A              22 (A) A                 0.6535
    ------------------------------------------------------
  ----------------------------------------------------------------------------


  Excited state  2 (A)                                             [converged]
  ----------------------------------------------------------------------------
  Term symbol:  3 (-) A                                     R^2 =  1.49682e-13

  Total energy:                                           -425.0222524935 a.u.
  Excitation energy:                                             296.364590 eV

  Osc. strength:                                                      0.109296
  Trans. dip. moment [a.u.]:           [  -0.043133,   -0.109042,    0.036087]
  <i|r^2|0> [a.u.]:                    [   0.081169,   -1.212902,   -0.030498]

  V1^2 = 0.9538, V2^2 = 0.0462

  Important amplitudes:
     core i     occ j      vir a      vir b          v   
    ------------------------------------------------------
     5 (A) B              21 (A) B                -0.6650
     5 (A) A              22 (A) A                -0.6649
    ------------------------------------------------------
  ----------------------------------------------------------------------------


  Excited state  3 (A)                                             [converged]
  ----------------------------------------------------------------------------
  Term symbol:  4 (-) A                                     R^2 =  5.93724e-13

  Total energy:                                           -424.7703604565 a.u.
  Excitation energy:                                             303.218921 eV

  Osc. strength:                                                      0.000000
  Trans. dip. moment [a.u.]:           [  -0.000011,   -0.000027,    0.000008]
  <i|r^2|0> [a.u.]:                    [   0.000015,   -0.000317,   -0.000013]

  V1^2 = 0.9287, V2^2 = 0.0713

  Important amplitudes:
     core i     occ j      vir a      vir b          v   
    ------------------------------------------------------
     5 (A) A              23 (A) A                -0.6180
     5 (A) B              23 (A) B                 0.6174
    ------------------------------------------------------
  ----------------------------------------------------------------------------


  Excited state  4 (A)                                             [converged]
  ----------------------------------------------------------------------------
  Term symbol:  5 (-) A                                     R^2 =  1.65927e-13

  Total energy:                                           -424.7151821685 a.u.
  Excitation energy:                                             304.720399 eV

  Osc. strength:                                                      0.002485
  Trans. dip. moment [a.u.]:           [  -0.008114,   -0.016229,    0.001903]
  <i|r^2|0> [a.u.]:                    [  -0.000448,   -0.207258,   -0.016475]

  V1^2 = 0.9179, V2^2 = 0.0821

  Important amplitudes:
     core i     occ j      vir a      vir b          v   
    ------------------------------------------------------
     5 (A) B              23 (A) B                -0.6505
     5 (A) A              23 (A) A                -0.6498
    ------------------------------------------------------
  ----------------------------------------------------------------------------


  Excited state  5 (A)                                             [converged]
  ----------------------------------------------------------------------------
  Term symbol:  6 (-) A                                     R^2 =  1.99798e-13

  Total energy:                                           -424.6740470431 a.u.
  Excitation energy:                                             305.839743 eV

  Osc. strength:                                                      0.000000
  Trans. dip. moment [a.u.]:           [   0.000017,   -0.000009,   -0.000007]
  <i|r^2|0> [a.u.]:                    [  -0.000032,   -0.000103,    0.000007]

  V1^2 = 0.9535, V2^2 = 0.0465

  Important amplitudes:
     core i     occ j      vir a      vir b          v   
    ------------------------------------------------------
     5 (A) A              27 (A) A                -0.5135
     5 (A) B              27 (A) B                 0.5132
    ------------------------------------------------------
  ----------------------------------------------------------------------------


  Excited state  6 (A)                                             [converged]
  ----------------------------------------------------------------------------
  Term symbol:  7 (-) A                                     R^2 =  2.84444e-13

  Total energy:                                           -424.6654785337 a.u.
  Excitation energy:                                             306.072904 eV

  Osc. strength:                                                      0.000000
  Trans. dip. moment [a.u.]:           [   0.000001,    0.000001,    0.000002]
  <i|r^2|0> [a.u.]:                    [  -0.000003,    0.000005,   -0.000002]

  V1^2 = 0.9532, V2^2 = 0.0468

  Important amplitudes:
     core i     occ j      vir a      vir b          v   
    ------------------------------------------------------
     5 (A) B              28 (A) B                 0.4474
     5 (A) B              25 (A) B                 0.4459
    ------------------------------------------------------
  ----------------------------------------------------------------------------


  Excited state  7 (A)                                             [converged]
  ----------------------------------------------------------------------------
  Term symbol:  8 (-) A                                     R^2 =  2.34679e-12

  Total energy:                                           -424.6224832394 a.u.
  Excitation energy:                                             307.242865 eV

  Osc. strength:                                                      0.000169
  Trans. dip. moment [a.u.]:           [   0.003890,   -0.002108,   -0.001702]
  <i|r^2|0> [a.u.]:                    [  -0.007357,   -0.023439,    0.001738]

  V1^2 = 0.8531, V2^2 = 0.1469

  Important amplitudes:
     core i     occ j      vir a      vir b          v   
    ------------------------------------------------------
     5 (A) B              22 (A) B                 0.9214
     5 (A) B   13 (A) A   22 (A) A   22 (A) B     -0.0711
    ------------------------------------------------------
  ----------------------------------------------------------------------------


  Excited state  8 (A)                                             [converged]
  ----------------------------------------------------------------------------
  Term symbol:  9 (-) A                                     R^2 =  1.92072e-13

  Total energy:                                           -424.5932787083 a.u.
  Excitation energy:                                             308.037561 eV

  Osc. strength:                                                      0.120211
  Trans. dip. moment [a.u.]:           [  -0.103162,    0.056123,    0.046223]
  <i|r^2|0> [a.u.]:                    [   0.194548,    0.624720,   -0.047196]

  V1^2 = 0.9441, V2^2 = 0.0559

  Important amplitudes:
     core i     occ j      vir a      vir b          v   
    ------------------------------------------------------
     5 (A) B              24 (A) B                -0.5053
     5 (A) A              24 (A) A                -0.5043
    ------------------------------------------------------
  ----------------------------------------------------------------------------


  Excited state  9 (A)                                             [converged]
  ----------------------------------------------------------------------------
  Term symbol:  10 (-) A                                    R^2 =  3.51925e-13

  Total energy:                                           -424.5852118253 a.u.
  Excitation energy:                                             308.257072 eV

  Osc. strength:                                                      0.118962
  Trans. dip. moment [a.u.]:           [  -0.057099,   -0.013568,   -0.110940]
  <i|r^2|0> [a.u.]:                    [   0.108042,   -0.149353,    0.095742]

  V1^2 = 0.9438, V2^2 = 0.0562

  Important amplitudes:
     core i     occ j      vir a      vir b          v   
    ------------------------------------------------------
     5 (A) A              25 (A) A                -0.5014
     5 (A) B              25 (A) B                -0.5014
    ------------------------------------------------------
  ----------------------------------------------------------------------------


  Excited state 10 (A)                                             [converged]
  ----------------------------------------------------------------------------
  Term symbol:  11 (-) A                                    R^2 =  2.48545e-13

  Total energy:                                           -424.3888094774 a.u.
  Excitation energy:                                             313.601451 eV

  Osc. strength:                                                      0.000008
  Trans. dip. moment [a.u.]:           [  -0.000355,   -0.000929,    0.000332]
  <i|r^2|0> [a.u.]:                    [   0.000754,   -0.010250,   -0.000197]

  V1^2 = 0.9137, V2^2 = 0.0863

  Important amplitudes:
     core i     occ j      vir a      vir b          v   
    ------------------------------------------------------
     5 (A) A              26 (A) A                 0.5543
     5 (A) B              26 (A) B                -0.5336
    ------------------------------------------------------
  ----------------------------------------------------------------------------


  Excited state 11 (A)                                             [converged]
  ----------------------------------------------------------------------------
  Term symbol:  12 (-) A                                    R^2 =  4.52232e-13

  Total energy:                                           -424.3814126834 a.u.
  Excitation energy:                                             313.802728 eV

  Osc. strength:                                                      0.000000
  Trans. dip. moment [a.u.]:           [  -0.000052,   -0.000133,    0.000047]
  <i|r^2|0> [a.u.]:                    [   0.000108,   -0.001474,   -0.000029]

  V1^2 = 0.9125, V2^2 = 0.0875

  Important amplitudes:
     core i     occ j      vir a      vir b          v   
    ------------------------------------------------------
     5 (A) B              29 (A) B                 0.4563
     5 (A) A              29 (A) A                -0.4545
    ------------------------------------------------------
  ----------------------------------------------------------------------------


  Excited state 12 (A)                                             [converged]
  ----------------------------------------------------------------------------
  Term symbol:  13 (-) A                                    R^2 =  3.73206e-13

  Total energy:                                           -424.3610334598 a.u.
  Excitation energy:                                             314.357275 eV

  Osc. strength:                                                      0.042317
  Trans. dip. moment [a.u.]:           [  -0.026166,   -0.065899,    0.021615]
  <i|r^2|0> [a.u.]:                    [   0.049604,   -0.733456,   -0.017904]

  V1^2 = 0.9107, V2^2 = 0.0893

  Important amplitudes:
     core i     occ j      vir a      vir b          v   
    ------------------------------------------------------
     5 (A) B              26 (A) B                 0.6645
     5 (A) A              26 (A) A                 0.6470
    ------------------------------------------------------
  ----------------------------------------------------------------------------


  Excited state 13 (A)                                             [converged]
  ----------------------------------------------------------------------------
  Term symbol:  14 (-) A                                    R^2 =  1.00577e-12

  Total energy:                                           -424.3370503112 a.u.
  Excitation energy:                                             315.009890 eV

  Osc. strength:                                                      0.000003
  Trans. dip. moment [a.u.]:           [   0.000545,   -0.000290,   -0.000237]
  <i|r^2|0> [a.u.]:                    [  -0.001009,   -0.003229,    0.000234]

  V1^2 = 0.8953, V2^2 = 0.1047

  Important amplitudes:
     core i     occ j      vir a      vir b          v   
    ------------------------------------------------------
     5 (A) A              24 (A) A                -0.4994
     5 (A) B              24 (A) B                 0.4898
    ------------------------------------------------------
  ----------------------------------------------------------------------------


  Excited state 14 (A)                                             [converged]
  ----------------------------------------------------------------------------
  Term symbol:  15 (-) A                                    R^2 =  4.44044e-13

  Total energy:                                           -424.3360476164 a.u.
  Excitation energy:                                             315.037175 eV

  Osc. strength:                                                      0.000000
  Trans. dip. moment [a.u.]:           [  -0.000053,   -0.000097,    0.000024]
  <i|r^2|0> [a.u.]:                    [   0.000072,   -0.001110,   -0.000047]

  V1^2 = 0.8955, V2^2 = 0.1045

  Important amplitudes:
     core i     occ j      vir a      vir b          v   
    ------------------------------------------------------
     5 (A) A              25 (A) A                 0.5000
     5 (A) B              25 (A) B                -0.4997
    ------------------------------------------------------
  ----------------------------------------------------------------------------


  Excited state 15 (A)                                             [converged]
  ----------------------------------------------------------------------------
  Term symbol:  16 (-) A                                    R^2 =  6.08833e-13

  Total energy:                                           -424.3233205509 a.u.
  Excitation energy:                                             315.383496 eV

  Osc. strength:                                                      0.028200
  Trans. dip. moment [a.u.]:           [   0.049471,   -0.026839,   -0.021953]
  <i|r^2|0> [a.u.]:                    [  -0.091650,   -0.299396,    0.021496]

  V1^2 = 0.8989, V2^2 = 0.1011

  Important amplitudes:
     core i     occ j      vir a      vir b          v   
    ------------------------------------------------------
     5 (A) B              27 (A) B                 0.5074
     5 (A) A              27 (A) A                 0.4976
    ------------------------------------------------------
  ----------------------------------------------------------------------------


  Excited state 16 (A)                                             [converged]
  ----------------------------------------------------------------------------
  Term symbol:  17 (-) A                                    R^2 =  1.00901e-12

  Total energy:                                           -424.3217276230 a.u.
  Excitation energy:                                             315.426842 eV

  Osc. strength:                                                      0.029470
  Trans. dip. moment [a.u.]:           [  -0.027981,   -0.006949,   -0.054610]
  <i|r^2|0> [a.u.]:                    [   0.051329,   -0.077710,    0.047953]

  V1^2 = 0.8993, V2^2 = 0.1007

  Important amplitudes:
     core i     occ j      vir a      vir b          v   
    ------------------------------------------------------
     5 (A) B              28 (A) B                -0.4470
     5 (A) B              25 (A) B                 0.4442
    ------------------------------------------------------
  ----------------------------------------------------------------------------


  Excited state 17 (A)                                             [converged]
  ----------------------------------------------------------------------------
  Term symbol:  18 (-) A                                    R^2 =  6.95656e-13

  Total energy:                                           -424.3184063852 a.u.
  Excitation energy:                                             315.517217 eV

  Osc. strength:                                                      0.000171
  Trans. dip. moment [a.u.]:           [  -0.000306,    0.002731,   -0.003818]
  <i|r^2|0> [a.u.]:                    [   0.026284,    0.057890,    0.028761]

  V1^2 = 0.9173, V2^2 = 0.0827

  Important amplitudes:
     core i     occ j      vir a      vir b          v   
    ------------------------------------------------------
     5 (A) B              29 (A) B                 0.5814
     5 (A) A              29 (A) A                 0.5768
    ------------------------------------------------------
  ----------------------------------------------------------------------------


  Excited state 18 (A)                                         [not converged]
  ----------------------------------------------------------------------------
  Term symbol:  19 (-) A                                    R^2 =  6.16041e-06

  Total energy:                                           -423.6905364177 a.u.
  Excitation energy:                                             332.602428 eV


  V1^2 = 0.8705, V2^2 = 0.1295

  Important amplitudes:
     core i     occ j      vir a      vir b          v   
    ------------------------------------------------------
     5 (A) A              32 (A) A                -0.5648
     5 (A) B              32 (A) B                 0.5465
    ------------------------------------------------------
  ----------------------------------------------------------------------------


  Excited state 19 (A)                                         [not converged]
  ----------------------------------------------------------------------------
  Term symbol:  20 (-) A                                    R^2 =  1.44951e-06

  Total energy:                                           -423.6863886399 a.u.
  Excitation energy:                                             332.715295 eV


  V1^2 = 0.8696, V2^2 = 0.1304

  Important amplitudes:
     core i     occ j      vir a      vir b          v   
    ------------------------------------------------------
     5 (A) A              33 (A) A                 0.6531
     5 (A) B              33 (A) B                -0.6528
    ------------------------------------------------------
  ----------------------------------------------------------------------------


  Excited state 20 (A)                                         [not converged]
  ----------------------------------------------------------------------------
  Term symbol:  21 (-) A                                    R^2 =  1.80290e-04

  Total energy:                                           -423.6836935694 a.u.
  Excitation energy:                                             332.788631 eV


  V1^2 = 0.8690, V2^2 = 0.1310

  Important amplitudes:
     core i     occ j      vir a      vir b          v   
    ------------------------------------------------------
     5 (A) A              32 (A) A                 0.5564
     5 (A) B              32 (A) B                 0.5379
    ------------------------------------------------------
  ----------------------------------------------------------------------------


--------------------------------------------------------------------------------
  Time of ADC calculation:  CPU 1247.72 s  wall 1295.94 s
================================================================================
 
 --------------------------------------------------------------
 
                    Orbital Energies (a.u.)
 --------------------------------------------------------------
 
 Alpha MOs
 -- Occupied --
-26.753 -26.748 -26.748 -26.566 -11.952  -2.180  -2.075  -2.069
 -1.818  -1.328  -1.249  -1.248  -1.196  -1.077  -1.077  -1.051
 -1.048  -1.025  -0.986  -0.880  -0.878
 -- Virtual --
 -0.191   0.003   0.207   0.209   0.330   0.412   0.418   0.427
  0.920   1.003   1.008   1.011   1.128   1.130   1.205   1.242
  1.261   1.265   1.275   1.287   1.287   1.305   1.373   1.430
  1.635   1.636   1.746   1.748   1.779   1.859   1.877   1.892
  1.898   1.900   1.924   1.954   1.956   1.960   1.967   2.058
  2.107   2.282   2.686   2.694   3.010   3.022   3.222   3.234
  3.237   3.567   4.181   4.668   4.878   4.905
 
 Beta MOs
 -- Occupied --
-26.753 -26.748 -26.748 -26.518 -11.952  -2.180  -2.075  -2.069
 -1.626  -1.328  -1.249  -1.248  -1.196  -1.077  -1.077  -1.051
 -1.048  -1.025  -0.827  -0.826
 -- Virtual --
 -0.191  -0.067   0.003   0.207   0.209   0.331   0.412   0.418
  0.427   0.950   1.003   1.009   1.011   1.128   1.130   1.260
  1.263   1.264   1.287   1.287   1.299   1.305   1.374   1.427
  1.436   1.635   1.637   1.746   1.748   1.779   1.872   1.898
  1.900   1.955   1.956   1.965   1.970   1.987   1.990   2.002
  2.058   2.107   2.282   2.686   2.694   3.010   3.022   3.223
  3.234   3.237   3.607   4.181   4.669   4.878   4.905
 --------------------------------------------------------------
 
          Ground-State Mulliken Net Atomic Charges

     Atom                 Charge (a.u.)    Spin (a.u.)
  --------------------------------------------------------
      1 C                     1.223600      -0.000902
      2 F                    -0.080796       0.000024
      3 F                    -0.080557       0.000024
      4 F                     0.006037       1.000833
      5 F                    -0.068283       0.000022
  --------------------------------------------------------
  Sum of atomic charges =     1.000000
  Sum of spin   charges =     1.000000

 -----------------------------------------------------------------
                    Cartesian Multipole Moments
 -----------------------------------------------------------------
    Charge (ESU x 10^10)
                 4.8032
    Dipole Moment (Debye)
         X      -2.4234      Y      13.9449      Z      -1.1127
       Tot      14.1976
    Quadrupole Moments (Debye-Ang)
        XX     -19.1106     XY      -6.9353     YY      20.6721
        XZ       0.1777     YZ      -3.5043     ZZ     -20.5084
    Octopole Moments (Debye-Ang^2)
       XXX      41.8214    XXY     -45.0653    XYY      -5.1150
       YYY     -23.0141    XXZ       1.1782    XYZ       1.0551
       YYZ     -10.6113    XZZ      13.2225    YZZ     -47.4970
       ZZZ      -0.6945
    Hexadecapole Moments (Debye-Ang^3)
      XXXX    -140.9640   XXXY      74.9108   XXYY    -166.9751
      XYYY      18.1276   YYYY    -533.3750   XXXZ       6.8786
      XXYZ      10.8498   XYYZ       6.8057   YYYZ      -0.7777
      XXZZ     -36.9703   XYZZ      22.1203   YYZZ    -161.4927
      XZZZ      11.4128   YZZZ      29.1209   ZZZZ     -90.4737
 -----------------------------------------------------------------
Archival summary:
1\1\tp-linux1\SP\HF\6-31G*\41(1+,2)\thomas\WedMar2219:43:322017WedMar2219:43:322017\0\\#,HF,6-31G*,\\1,2\C\F,1,1.20484\F,1,1.21442,2,119.817\F,1,1.21461,2,119.826,3,169.056,0\F,1,3.37237,2,96.6746,3,-95.6158,0\\HF=-435.175099\\@

 Total job time:  1324.05s(wall), 1264.99s(cpu) 
 Wed Mar 22 19:43:32 2017

        *************************************************************
        *                                                           *
        *  Thank you very much for using Q-Chem.  Have a nice day.  *
        *                                                           *
        *************************************************************


0 sent ACK to 0 
now end server 0 ... 
cleanup process ... done
