
Running Job 1 of 1 ddtraj1t20.inp
qchem ddtraj1t20.inp_16870.0 /scratch/qchem/qchem16870/ 1
/mnt/software/qchem/bin/mpi/mpirun_qchem -machinefile /mnt/software/qchem/bin/mpi/machines -np 1 /mnt/software/qchem/exe/qcprog.exe ddtraj1t20.inp_16870.0 /scratch/qchem/qchem16870/

Process 0 of 1 is on tp-linux1 - thread support 0
initial socket setup ...start
initial socket setup ...done 
now start server 0 ... 

cmd = ssh tp-linux1 /mnt/software/qchem/bin/get_hostid 1482070838 > /scratch/qchem/qchem16870/lic.dat
                  Welcome to Q-Chem
     A Quantum Leap Into The Future Of Chemistry


 Q-Chem 4.3, Q-Chem, Inc., Pleasanton, CA (2015)

 Y. Shao,  Z. Gan,  E. Epifanovsky,  A. T. B. Gilbert,  M. Wormit,  
 J. Kussmann,  A. W. Lange,  A. Behn,  J. Deng,  X. Feng,  D. Ghosh,  
 M. Goldey,  P. R. Horn,  L. D. Jacobson,  I. Kaliman,  R. Z. Khaliullin,  
 T. Kus,  A. Landau,  J. Liu,  E. I. Proynov,  Y. M. Rhee,  R. M. Richard,  
 M. A. Rohrdanz,  R. P. Steele,  E. J. Sundstrom,  H. L. Woodcock III,  
 P. M. Zimmerman,  D. Zuev,  B. Albrecht,  E. Alguire,  B. Austin,  
 S. A. Baeppler,  G. J. O. Beran,  Y. A. Bernard,  E. Berquist,  
 K. Brandhorst,  K. B. Bravaya,  S. T. Brown,  D. Casanova,  C.-M. Chang,  
 Y. Chen,  S. H. Chien,  K. D. Closser,  D. L. Crittenden,  M. Diedenhofen,  
 R. A. DiStasio Jr.,  H. Do,  A. D. Dutoi,  R. G. Edgar,  P.-T. Fang,  
 S. Fatehi,  Q. Feng,  L. Fusti-Molnar,  A. Ghysels,  
 A. Golubeva-Zadorozhnaya,  J. Gomes,  A. Gunina,  M. W. D. Hanson-Heine,  
 P. H. P. Harbach,  A. W. Hauser,  E. G. Hohenstein,  Z. C. Holden,  K. Hui,  
 T.-C. Jagau,  H. Ji,  B. Kaduk,  K. Khistyaev,  Jaehoon Kim,  Jihan Kim,  
 R. A. King,  P. Klunzinger,  D. Kosenkov,  T. Kowalczyk,  C. M. Krauter,  
 K. U. Lao,  A. Laurent,  K. V. Lawler,  S. Lehtola,  S. V. Levchenko,  
 C. Y. Lin,  Y.-S. Lin,  F. Liu,  E. Livshits,  R. C. Lochan,  A. Luenser,  
 P. Manohar,  S. F. Manzer,  S.-P. Mao,  N. Mardirossian,  A. V. Marenich,  
 L. A. Martinez-Martinez,  S. A. Maurer,  N. J. Mayhall,  K. Nanda,  
 C. M. Oana,  R. Olivares-Amaya,  D. P. O'Neill,  J. A. Parkhill,  
 T. M. Perrine,  R. Peverati,  P. A. Pieniazek,  F. Plasser,  A. Prociuk,  
 D. R. Rehn,  E. Rosta,  N. J. Russ,  N. Sergueev,  S. M. Sharada,  
 S. Sharma,  D. W. Small,  A. Sodt,  T. Stauch,  T. Stein,  D. Stuck,  
 Y.-C. Su,  A. J. W. Thom,  T. Tsuchimochi,  L. Vogt,  O. Vydrov,  T. Wang,  
 M. A. Watson,  J. Wenzel,  A. White,  C. F. Williams,  V. Vanovschi,  
 S. Yeganeh,  S. R. Yost,  Z.-Q. You,  I. Y. Zhang,  X. Zhang,  Y. Zhao,  
 B. R. Brooks,  G. K. L. Chan,  D. M. Chipman,  C. J. Cramer,  
 W. A. Goddard III,  M. S. Gordon,  W. J. Hehre,  A. Klamt,  
 H. F. Schaefer III,  M. W. Schmidt,  C. D. Sherrill,  D. G. Truhlar,  
 A. Warshel,  X. Xu,  A. Aspuru-Guzik,  R. Baer,  A. T. Bell,  N. A. Besley,  
 J.-D. Chai,  A. Dreuw,  B. D. Dunietz,  T. R. Furlani,  S. R. Gwaltney,  
 C.-P. Hsu,  Y. Jung,  J. Kong,  D. S. Lambrecht,  W. Liang,  C. Ochsenfeld,  
 V. A. Rassolov,  L. V. Slipchenko,  J. E. Subotnik,  T. Van Voorhis,  
 J. M. Herbert,  A. I. Krylov,  P. M. W. Gill,  M. Head-Gordon

 Contributors to earlier versions of Q-Chem not listed above: 
 R. D. Adamson,  J. Baker,  E. F. C. Byrd,  A. K. Chakraborty,  C.-L. Cheng,  
 H. Dachsel,  R. J. Doerksen,  G. Hawkins,  A. Heyden,  S. Hirata,  
 G. Kedziora,  F. J. Keil,  C. Kelley,  P. P. Korambath,  W. Kurlancheek,  
 A. M. Lee,  M. S. Lee,  D. Liotard,  I. Lotan,  P. E. Maslen,  N. Nair,  
 D. Neuhauser,  R. Olson,  B. Peters,  J. Ritchie,  N. E. Schultz,  
 N. Shenvi,  A. C. Simmonett,  K. S. Thanthiriwatte,  Q. Wu,  W. Zhang

 Please cite Q-Chem as follows:
 Y. Shao et al., Mol. Phys. 113, 184-215 (2015)
 DOI: 10.1080/00268976.2014.952696

 Q-Chem 4.3.0 for Intel X86 Linux

 Parts of Q-Chem use Armadillo 5.200.1 (Boston Tea Smuggler).
 http://arma.sourceforge.net/

 Q-Chem begins on Tue Mar 21 15:19:57 2017  

Host: 
0

     Scratch files written to /scratch/qchem/qchem16870//
 Nov1815 1189b_ 19540  19532 5443   
 Parallel job on  1  processors
Processing $rem in /mnt/software/qchem/config/preferences.
 MEM_TOTAL  2000 

Checking the input file for inconsistencies... 	...done.

--------------------------------------------------------------
User input:
--------------------------------------------------------------
$comment
XAS calculation for valence excited states for CF4+ using cvs-adc(2) + 6-31G* basis set
job 1 - determination of HF orbitals
$end

$molecule
1 2
6  -0.452169  3.004657  -0.240288
9  0.581599  2.335708  -0.001667
9  -1.13755  3.271349  0.776324
9  -1.268436  0.808819  0.589216
9  -1.129085  2.569104  -1.212099
$end

$comment
cvs-adc(2) calculation
$end

$rem
mem_total 3000
mem_static 1500
sym_ignore true
method cvs-adc(2)-x
basis 6-31G*
ee_singlets 20
cc_rest_occ 5                  !only excitations from the lowest N orbitals
unrestricted  true
max_scf_cycles 200
SCF_CONVERGENCE = 6
$end
--------------------------------------------------------------
 ----------------------------------------------------------------
             Standard Nuclear Orientation (Angstroms)
    I     Atom           X                Y                Z
 ----------------------------------------------------------------
    1      C      -0.4521690000     3.0046570000    -0.2402880000
    2      F       0.5815990000     2.3357080000    -0.0016670000
    3      F      -1.1375500000     3.2713490000     0.7763240000
    4      F      -1.2684360000     0.8088190000     0.5892160000
    5      F      -1.1290850000     2.5691040000    -1.2120990000
 ----------------------------------------------------------------
 Nuclear Repulsion Energy =   192.3809550659 hartrees
 There are       21 alpha and       20 beta electrons
 Requested basis set is 6-31G(d)
 There are 20 shells and 75 basis functions

 Total QAlloc Memory Limit   3000 MB
 Mega-Array Size      1467 MB
 MEM_STATIC part      1500 MB

                       Distance Matrix (Angstroms)
             C (  1)   F (  2)   F (  3)   F (  4)
   F (  2)  1.254236
   F (  3)  1.254740  2.106221
   F (  4)  2.485171  2.470458  2.473094
   F (  5)  1.261879  2.108568  2.108802  2.522451
 
 tim1(1): 
  0.000000000000000E+000
 tim1(2): 
  0.000000000000000E+000
 A cutoff of  1.0D-09 yielded    196 shell pairs
 There are      2950 function pairs
 
 -------------------------------------------------------
 OpenMP Integral Computing Module                       
 Release: version 1.0, May 2013, Q-Chem Inc. Pittsburgh 
 -------------------------------------------------------
 Integral Job Info:
 Integral job number is                      11
 Integral operator is                         1
 short-range coefficients                     0
 long-range coefficients              100000000
 Omega coefficients                           0
 if combine SR and LR in K                    0
 Integral screening is                        0
 Integral computing path is                   2
 max size of driver memory is            800000
 size of driver memory is                593474
 size of scratch memory is              2260544
 max col of scratch BK array               1296
 max len of scratch array in speh3          155
 max len of scratch index in speh4           18
 max int batch size is                      520
 min int batch size is                       52
 fixed nKL is                                52
 max L of basis functions is                  2
 order of int derivative is                   0
 number of shells is                         20
 number of basis is                          75
 number of cartesian basis is                75
 number of contracted shell pairs           196
 number of primitive shell pairs            983
 maxK2 (contraction) of shell pair           36
 max number of K2 of shell pair               1
 max number of CS2 of shell pair             26
 max number of PS2 of shell pair            180
 mem total for path MDJ                   21832
 -------------------------------------------------------
 Smallest overlap matrix eigenvalue = 1.59E-03

 Scale SEOQF with 1.000000e+00/1.000000e-01/1.000000e+00

 Standard Electronic Orientation quadrupole field applied
 Nucleus-field energy     =     0.0000000102 hartrees
 Guess from superposition of atomic densities
 Warning:  Energy on first SCF cycle will be non-variational
 An unrestricted Hartree-Fock SCF calculation will be
 performed using Pulay DIIS extrapolation
 SCF converges when DIIS error is below 1.0E-06
 ---------------------------------------
  Cycle       Energy         DIIS Error
 ---------------------------------------
    1    -436.1307054503      8.48E-02
    2    -434.8852041491      1.85E-02
    3    -435.0755837756      9.42E-03
    4    -435.1178949995      1.89E-03
    5    -435.1199508689      3.90E-04
    6    -435.1202220441      8.13E-05
    7    -435.1202464707      3.34E-05
    8    -435.1202555470      2.90E-05
    9    -435.1202613584      2.83E-05
   10    -435.1202704080      2.78E-05
   11    -435.1203071987      2.62E-05
   12    -435.1204283019      2.17E-05
   13    -435.1204651238      1.72E-05
   14    -435.1205424087      5.33E-05
   15    -435.1205488391      3.21E-05
   16    -435.1205558718      1.57E-05
   17    -435.1205567814      3.84E-06
   18    -435.1205568962      9.42E-07 Convergence criterion met
 ---------------------------------------
 <S^2> = 0.7529
 SCF time:  CPU 2.98 s  wall 4.13 s
 SCF   energy in the final basis set = -435.1205568962
 Total energy in the final basis set = -435.1205568962
================================================================================
|                                                                              |
|                                 A D C  M A N                                 |
|                                                                              |
 ------------------------------------------------------------------------------ 
|                                                                              |
| Components:                                                                  |
|                                                                              |
| - libvmm - 1.2-release                                                       |
|   Authors:                                                                   |
|   Evgeny Epifanovsky, Ilya Kaliman                                           |
|                                                                              |
| - libtensor - 2.4-trunk                                                      |
|   Authors:                                                                   |
|   Evgeny Epifanovsky, Michael Wormit, Dmitry Zuev, Sam Manzer                |
|                                                                              |
| - libwfa - 1.1-beta                                                          |
|   Authors:                                                                   |
|   Felix Plasser, Stefanie Baeppler, Benjamin Thomitzni, Michael Wormit       |
|                                                                              |
| - libadc - 1.0-beta                                                          |
|   Authors:                                                                   |
|   Michael Wormit, Philipp H. P. Harbach, Caroline Krauter, Dirk Rehn,        |
|   Matthias Schneider, Jan Wenzel                                             |
|                                                                              |
| - adcman - 2.4-beta                                                          |
|   Authors:                                                                   |
|   Michael Wormit, Philipp H. P. Harbach, Caroline Krauter, Dirk Rehn,        |
|   Jan Wenzel, Andreas Dreuw                                                  |
|                                                                              |
| Authors of earlier versions of ADCMAN:                                       |
| Andreas Dreuw, Jan Hendrik Starcke, Dirk Rehn, Michael Wormit                |
|                                                                              |
================================================================================

 
 Alpha MOs, Unrestricted
 -- Occupied --                  
-26.739 -26.738 -26.736 -26.615 -11.964  -2.143  -2.035  -2.031
  1 A     2 A     3 A     4 A     5 A     6 A     7 A     8 A                  
 -1.870  -1.316  -1.215  -1.215  -1.166  -1.060  -1.058  -1.040
  9 A    10 A    11 A    12 A    13 A    14 A    15 A    16 A                  
 -1.027  -1.018  -1.009  -0.927  -0.925
 17 A    18 A    19 A    20 A    21 A                                          
 -- Virtual --                   
 -0.304   0.124   0.128   0.139   0.348   0.380   0.384   0.457
 22 A    23 A    24 A    25 A    26 A    27 A    28 A    29 A                  
  0.947   0.994   1.006   1.021   1.026   1.037   1.175   1.198
 30 A    31 A    32 A    33 A    34 A    35 A    36 A    37 A                  
  1.229   1.299   1.299   1.315   1.365   1.395   1.416   1.574
 38 A    39 A    40 A    41 A    42 A    43 A    44 A    45 A                  
  1.631   1.633   1.738   1.743   1.784   1.805   1.809   1.827
 46 A    47 A    48 A    49 A    50 A    51 A    52 A    53 A                  
  1.859   1.867   1.900   1.928   1.941   2.013   2.026   2.078
 54 A    55 A    56 A    57 A    58 A    59 A    60 A    61 A                  
  2.468   2.493   2.502   2.685   2.833   2.837   3.118   3.120
 62 A    63 A    64 A    65 A    66 A    67 A    68 A    69 A                  
  3.275   3.710   4.252   4.437   4.456   6.537
 70 A    71 A    72 A    73 A    74 A    75 A                                  
 
 Beta MOs, Unrestricted
 -- Occupied --                  
-26.739 -26.738 -26.736 -26.567 -11.964  -2.143  -2.035  -2.031
  1 A     2 A     3 A     4 A     5 A     6 A     7 A     8 A                  
 -1.678  -1.316  -1.215  -1.215  -1.165  -1.058  -1.057  -1.027
  9 A    10 A    11 A    12 A    13 A    14 A    15 A    16 A                  
 -1.025  -1.009  -0.875  -0.873
 17 A    18 A    19 A    20 A                                                  
 -- Virtual --                   
 -0.304  -0.118   0.125   0.128   0.140   0.349   0.381   0.385
 21 A    22 A    23 A    24 A    25 A    26 A    27 A    28 A                  
  0.463   0.962   1.008   1.015   1.029   1.042   1.052   1.207
 29 A    30 A    31 A    32 A    33 A    34 A    35 A    36 A                  
  1.235   1.251   1.300   1.303   1.315   1.405   1.418   1.463
 37 A    38 A    39 A    40 A    41 A    42 A    43 A    44 A                  
  1.590   1.634   1.638   1.743   1.747   1.784   1.816   1.818
 45 A    46 A    47 A    48 A    49 A    50 A    51 A    52 A                  
  1.840   1.925   1.938   1.944   1.955   1.962   2.028   2.035
 53 A    54 A    55 A    56 A    57 A    58 A    59 A    60 A                  
  2.078   2.470   2.493   2.502   2.690   2.833   2.837   3.118
 61 A    62 A    63 A    64 A    65 A    66 A    67 A    68 A                  
  3.120   3.279   3.747   4.252   4.438   4.456   6.539
 69 A    70 A    71 A    72 A    73 A    74 A    75 A                          
 

--------------------------------------------------------------------------------
                                   HF Summary                                   
--------------------------------------------------------------------------------
  Energy:                                                 -435.1205568962 a.u.
  Dip. moment [a.u.]:                  [ -54.519300,  181.176837,    0.305165]
  Total dipole [Debye]:                                             480.904255
  <r^2> [a.u.]:                        [ 164.156992,  928.109504,   94.240088]
  Total <r^2> [a.u.]:                                              1186.506584
--------------------------------------------------------------------------------

--------------------------------------------------------------------------------
                                 MP(2) Summary                                  
--------------------------------------------------------------------------------
  Energy contribution:                                      -0.7562787921 a.u.
  Total energy:                                           -435.8768356883 a.u.
  Dip. moment [a.u.]:                  [ -54.436461,  181.388973,    0.230524]
  Total dipole [Debye]:                                             481.359771
  <r^2> [a.u.]:                        [ 163.706756,  930.531922,   93.987907]
  Total <r^2> [a.u.]:                                              1188.226585
--------------------------------------------------------------------------------
  Starting Davidson ... 
--------------------------------------------------------------------------------
   It NVec Conv  Avg. Norm  Max. Norm  Conv. states           Remark
--------------------------------------------------------------------------------
        20    0  2.061e-01  1.150e+00 10.9190 n n n n n n n n Guess.
    1   40    0  1.277e-01  8.799e-01 10.6833 n n n n n n n n 
    2   60    0  1.002e-01  6.987e-01 10.6682 n n n n n n n n 
    3   80    0  8.980e-02  6.121e-01 10.6670 n n n n n n n n 
    4  100    0  7.083e-02  5.317e-01 10.6669 n n n n n n n n 
    5   40    0  4.930e-02  5.039e-01 10.6669 n n n n n n n n Subspace collapsed.
    6   60    0  3.505e-02  4.386e-01 10.6669 n n n n n n n n 
    7   80    0  3.281e-02  4.128e-01 10.6669 n n n n n n n n 
    8  100    0  1.273e-02  1.385e-01 10.6669 n n n n n n n n 
    9   40    0  5.000e-03  5.258e-02 10.6669 n n n n n n n n Subspace collapsed.
   10   60    0  9.818e-03  1.433e-01 10.6669 n n n n n n n n 
   11   80    0  5.965e-03  9.855e-02 10.6669 n n n n n n n n 
   12  100    1  2.980e-03  5.178e-02 10.6669 y n n n n n n n 
   13   40    2  1.469e-03  2.537e-02 10.6669 y y n n n n n n Subspace collapsed.
   14   60    2  1.292e-03  2.038e-02 10.6669 y y n n n n n n 
   15   80    2  8.857e-04  9.468e-03 10.6669 y y n n n n n n 
   16  100    2  7.417e-04  9.074e-03 10.6669 y y n n n n n n 
