
Running Job 1 of 1 ddtraj1t20.inp
qchem ddtraj1t20.inp_17243.0 /scratch/qchem/qchem17243/ 1
/mnt/software/qchem/bin/mpi/mpirun_qchem -machinefile /mnt/software/qchem/bin/mpi/machines -np 1 /mnt/software/qchem/exe/qcprog.exe ddtraj1t20.inp_17243.0 /scratch/qchem/qchem17243/

Process 0 of 1 is on tp-linux1 - thread support 0
initial socket setup ...start
initial socket setup ...done 
now start server 0 ... 

cmd = ssh tp-linux1 /mnt/software/qchem/bin/get_hostid 909401080 > /scratch/qchem/qchem17243/lic.dat
                  Welcome to Q-Chem
     A Quantum Leap Into The Future Of Chemistry


 Q-Chem 4.3, Q-Chem, Inc., Pleasanton, CA (2015)

 Y. Shao,  Z. Gan,  E. Epifanovsky,  A. T. B. Gilbert,  M. Wormit,  
 J. Kussmann,  A. W. Lange,  A. Behn,  J. Deng,  X. Feng,  D. Ghosh,  
 M. Goldey,  P. R. Horn,  L. D. Jacobson,  I. Kaliman,  R. Z. Khaliullin,  
 T. Kus,  A. Landau,  J. Liu,  E. I. Proynov,  Y. M. Rhee,  R. M. Richard,  
 M. A. Rohrdanz,  R. P. Steele,  E. J. Sundstrom,  H. L. Woodcock III,  
 P. M. Zimmerman,  D. Zuev,  B. Albrecht,  E. Alguire,  B. Austin,  
 S. A. Baeppler,  G. J. O. Beran,  Y. A. Bernard,  E. Berquist,  
 K. Brandhorst,  K. B. Bravaya,  S. T. Brown,  D. Casanova,  C.-M. Chang,  
 Y. Chen,  S. H. Chien,  K. D. Closser,  D. L. Crittenden,  M. Diedenhofen,  
 R. A. DiStasio Jr.,  H. Do,  A. D. Dutoi,  R. G. Edgar,  P.-T. Fang,  
 S. Fatehi,  Q. Feng,  L. Fusti-Molnar,  A. Ghysels,  
 A. Golubeva-Zadorozhnaya,  J. Gomes,  A. Gunina,  M. W. D. Hanson-Heine,  
 P. H. P. Harbach,  A. W. Hauser,  E. G. Hohenstein,  Z. C. Holden,  K. Hui,  
 T.-C. Jagau,  H. Ji,  B. Kaduk,  K. Khistyaev,  Jaehoon Kim,  Jihan Kim,  
 R. A. King,  P. Klunzinger,  D. Kosenkov,  T. Kowalczyk,  C. M. Krauter,  
 K. U. Lao,  A. Laurent,  K. V. Lawler,  S. Lehtola,  S. V. Levchenko,  
 C. Y. Lin,  Y.-S. Lin,  F. Liu,  E. Livshits,  R. C. Lochan,  A. Luenser,  
 P. Manohar,  S. F. Manzer,  S.-P. Mao,  N. Mardirossian,  A. V. Marenich,  
 L. A. Martinez-Martinez,  S. A. Maurer,  N. J. Mayhall,  K. Nanda,  
 C. M. Oana,  R. Olivares-Amaya,  D. P. O'Neill,  J. A. Parkhill,  
 T. M. Perrine,  R. Peverati,  P. A. Pieniazek,  F. Plasser,  A. Prociuk,  
 D. R. Rehn,  E. Rosta,  N. J. Russ,  N. Sergueev,  S. M. Sharada,  
 S. Sharma,  D. W. Small,  A. Sodt,  T. Stauch,  T. Stein,  D. Stuck,  
 Y.-C. Su,  A. J. W. Thom,  T. Tsuchimochi,  L. Vogt,  O. Vydrov,  T. Wang,  
 M. A. Watson,  J. Wenzel,  A. White,  C. F. Williams,  V. Vanovschi,  
 S. Yeganeh,  S. R. Yost,  Z.-Q. You,  I. Y. Zhang,  X. Zhang,  Y. Zhao,  
 B. R. Brooks,  G. K. L. Chan,  D. M. Chipman,  C. J. Cramer,  
 W. A. Goddard III,  M. S. Gordon,  W. J. Hehre,  A. Klamt,  
 H. F. Schaefer III,  M. W. Schmidt,  C. D. Sherrill,  D. G. Truhlar,  
 A. Warshel,  X. Xu,  A. Aspuru-Guzik,  R. Baer,  A. T. Bell,  N. A. Besley,  
 J.-D. Chai,  A. Dreuw,  B. D. Dunietz,  T. R. Furlani,  S. R. Gwaltney,  
 C.-P. Hsu,  Y. Jung,  J. Kong,  D. S. Lambrecht,  W. Liang,  C. Ochsenfeld,  
 V. A. Rassolov,  L. V. Slipchenko,  J. E. Subotnik,  T. Van Voorhis,  
 J. M. Herbert,  A. I. Krylov,  P. M. W. Gill,  M. Head-Gordon

 Contributors to earlier versions of Q-Chem not listed above: 
 R. D. Adamson,  J. Baker,  E. F. C. Byrd,  A. K. Chakraborty,  C.-L. Cheng,  
 H. Dachsel,  R. J. Doerksen,  G. Hawkins,  A. Heyden,  S. Hirata,  
 G. Kedziora,  F. J. Keil,  C. Kelley,  P. P. Korambath,  W. Kurlancheek,  
 A. M. Lee,  M. S. Lee,  D. Liotard,  I. Lotan,  P. E. Maslen,  N. Nair,  
 D. Neuhauser,  R. Olson,  B. Peters,  J. Ritchie,  N. E. Schultz,  
 N. Shenvi,  A. C. Simmonett,  K. S. Thanthiriwatte,  Q. Wu,  W. Zhang

 Please cite Q-Chem as follows:
 Y. Shao et al., Mol. Phys. 113, 184-215 (2015)
 DOI: 10.1080/00268976.2014.952696

 Q-Chem 4.3.0 for Intel X86 Linux

 Parts of Q-Chem use Armadillo 5.200.1 (Boston Tea Smuggler).
 http://arma.sourceforge.net/

 Q-Chem begins on Wed Mar 22 18:49:55 2017  

Host: 
0

     Scratch files written to /scratch/qchem/qchem17243//
 Nov1815 1189b_ 19540  19532 5443   
 Parallel job on  1  processors
Processing $rem in /mnt/software/qchem/config/preferences.
 MEM_TOTAL  2000 

Checking the input file for inconsistencies... 	...done.

--------------------------------------------------------------
User input:
--------------------------------------------------------------
$comment
XAS calculation for valence excited states for CF4+ using cvs-adc(2) + 6-31G* basis set
job 1 - determination of HF orbitals
$end

$molecule
1 2
6  -0.452169  3.004657  -0.240288
9  0.581599  2.335708  -0.001667
9  -1.13755  3.271349  0.776324
9  -1.268436  0.808819  0.589216
9  -1.129085  2.569104  -1.212099
$end

$comment
cvs-adc(2) calculation
$end

$rem
mem_total 3000
mem_static 1500
sym_ignore true
method cvs-adc(2)
basis 6-31G*
ee_singlets 20
cc_rest_occ 5                  !only excitations from the lowest N orbitals
unrestricted  true
max_scf_cycles 200
SCF_ALGORITHM = DIIS_GDM
SCF_CONVERGENCE = 7
THRESH = 10
$end
--------------------------------------------------------------
 ----------------------------------------------------------------
             Standard Nuclear Orientation (Angstroms)
    I     Atom           X                Y                Z
 ----------------------------------------------------------------
    1      C      -0.4521690000     3.0046570000    -0.2402880000
    2      F       0.5815990000     2.3357080000    -0.0016670000
    3      F      -1.1375500000     3.2713490000     0.7763240000
    4      F      -1.2684360000     0.8088190000     0.5892160000
    5      F      -1.1290850000     2.5691040000    -1.2120990000
 ----------------------------------------------------------------
 Nuclear Repulsion Energy =   192.3809550659 hartrees
 There are       21 alpha and       20 beta electrons
 Requested basis set is 6-31G(d)
 There are 20 shells and 75 basis functions

 Total QAlloc Memory Limit   3000 MB
 Mega-Array Size      1467 MB
 MEM_STATIC part      1500 MB

                       Distance Matrix (Angstroms)
             C (  1)   F (  2)   F (  3)   F (  4)
   F (  2)  1.254236
   F (  3)  1.254740  2.106221
   F (  4)  2.485171  2.470458  2.473094
   F (  5)  1.261879  2.108568  2.108802  2.522451
 
 tim1(1): 
  0.000000000000000E+000
 tim1(2): 
  0.000000000000000E+000
 A cutoff of  1.0D-10 yielded    197 shell pairs
 There are      2954 function pairs
 
 -------------------------------------------------------
 OpenMP Integral Computing Module                       
 Release: version 1.0, May 2013, Q-Chem Inc. Pittsburgh 
 -------------------------------------------------------
 Integral Job Info:
 Integral job number is                      11
 Integral operator is                         1
 short-range coefficients                     0
 long-range coefficients              100000000
 Omega coefficients                           0
 if combine SR and LR in K                    0
 Integral screening is                        0
 Integral computing path is                   2
 max size of driver memory is            800000
 size of driver memory is                593474
 size of scratch memory is              2260544
 max col of scratch BK array               1296
 max len of scratch array in speh3          155
 max len of scratch index in speh4           18
 max int batch size is                      520
 min int batch size is                       52
 fixed nKL is                                52
 max L of basis functions is                  2
 order of int derivative is                   0
 number of shells is                         20
 number of basis is                          75
 number of cartesian basis is                75
 number of contracted shell pairs           197
 number of primitive shell pairs           1005
 maxK2 (contraction) of shell pair           36
 max number of K2 of shell pair               1
 max number of CS2 of shell pair             32
 max number of PS2 of shell pair            192
 mem total for path MDJ                   21832
 -------------------------------------------------------
 Smallest overlap matrix eigenvalue = 1.59E-03

 Scale SEOQF with 1.000000e+00/1.000000e-01/1.000000e+00

 Standard Electronic Orientation quadrupole field applied
 Nucleus-field energy     =     0.0000000102 hartrees
 Guess from superposition of atomic densities
 Warning:  Energy on first SCF cycle will be non-variational
 An unrestricted Hartree-Fock SCF calculation will be
 performed using Pulay DIIS + Geometric Direct Minimization
 SCF converges when RMS gradient is below 1.0E-07
 ---------------------------------------
  Cycle       Energy         DIIS Error
 ---------------------------------------
    1    -436.1307054534      8.48E-02
    2    -434.8852041084      1.85E-02
    3    -435.0755837599      9.42E-03 Done DIIS. Switching to GDM
    4    -435.1178949844      1.83E-02 Normal BFGS step
    5    -435.1196170659      1.19E-02 Normal BFGS step
    6    -435.1202057758      2.34E-03 Normal BFGS step
    7    -435.1202421157      2.30E-03 Normal BFGS step
    8    -435.1202542019      2.26E-03 Normal BFGS step
    9    -435.1202687613      2.18E-03 Normal BFGS step
   10    -435.1202960532      2.02E-03 Normal BFGS step
   11    -435.1203479691      1.91E-03 Normal BFGS step
   12    -435.1204256638      2.42E-03 Normal BFGS step
   13    -435.1204996043      2.04E-03 Normal BFGS step
   14    -435.1205395785      1.12E-03 Normal BFGS step
   15    -435.1205516712      6.06E-04 Normal BFGS step
   16    -435.1205553221      3.07E-04 Normal BFGS step
   17    -435.1205566278      1.16E-04 Normal BFGS step
   18    -435.1205568493      7.25E-05 Normal BFGS step
   19    -435.1205568904      4.77E-05 Normal BFGS step
   20    -435.1205568994      4.78E-05 Normal BFGS step
   21    -435.1205569056      4.79E-05 Normal BFGS step
   22    -435.1205569135      4.79E-05 Normal BFGS step
   23    -435.1205569297      4.79E-05 Normal BFGS step
   24    -435.1205569639      5.06E-05 Normal BFGS step
   25    -435.1205570445      8.17E-05 Normal BFGS step
   26    -435.1205572378      1.26E-04 Normal BFGS step
   27    -435.1205577089      1.91E-04 Normal BFGS step
   28    -435.1205587979      3.05E-04 Normal BFGS step
   29    -435.1205604788      5.47E-04 Normal BFGS step
   30    -435.1205634358      6.21E-04 Normal BFGS step
   31    -435.1205741539      1.23E-03 Normal BFGS step
   32    -435.1205654815      5.59E-03 Line search: overstep
   33    -435.1205766031      3.76E-04 Normal BFGS step
   34    -435.1205803248      3.68E-04 Normal BFGS step
   35    -435.1205758480      1.00E-02 Line search: overstep
   36    -435.1205859668      7.82E-04 Normal BFGS step
   37    -435.1205913406      9.51E-04 Normal BFGS step
   38    -435.1205935950      4.30E-04 Normal BFGS step
   39    -435.1205989354      6.53E-04 Normal BFGS step
   40    -435.1206022726      9.80E-04 Normal BFGS step
   41    -435.1206063625      3.49E-04 Normal BFGS step
   42    -435.1206097899      7.24E-04 Normal BFGS step
   43    -435.1206120467      4.83E-04 Normal BFGS step
   44    -435.1206141399      5.41E-04 Normal BFGS step
   45    -435.1206168526      3.30E-04 Normal BFGS step
   46    -435.1206159095      4.65E-03 Line search: overstep
   47    -435.1206179303      4.50E-04 Normal BFGS step
   48    -435.1206200612      4.57E-04 Normal BFGS step
   49    -435.1206215022      1.14E-04 Normal BFGS step
   50    -435.1206220072      6.10E-04 Normal BFGS step
   51    -435.1206226926      6.21E-05 Normal BFGS step
   52    -435.1206229957      6.63E-05 Normal BFGS step
   53    -435.1206232339      2.90E-04 Normal BFGS step
   54    -435.1206234042      5.15E-05 Normal BFGS step
   55    -435.1206234900      4.77E-05 Normal BFGS step
   56    -435.1206235705      4.09E-05 Normal BFGS step
   57    -435.1206235844      3.85E-05 Normal BFGS step
   58    -435.1206235930      3.62E-05 Normal BFGS step
   59    -435.1206235994      3.37E-05 Normal BFGS step
   60    -435.1206236060      3.13E-05 Normal BFGS step
   61    -435.1206236155      3.14E-05 Normal BFGS step
   62    -435.1206236304      4.46E-05 Normal BFGS step
   63    -435.1206236489      4.14E-05 Normal BFGS step
   64    -435.1206236654      2.45E-05 Normal BFGS step
   65    -435.1206236745      1.69E-05 Normal BFGS step
   66    -435.1206236768      9.33E-06 Normal BFGS step
   67    -435.1206236772      3.39E-06 Normal BFGS step
   68    -435.1206236773      1.05E-06 Normal BFGS step
   69    -435.1206236773      8.60E-07 Normal BFGS step
   70    -435.1206236773      4.10E-07 Normal BFGS step
   71    -435.1206236773      1.19E-07 Normal BFGS step
   72    -435.1206236773      6.78E-08 Convergence criterion met
 ---------------------------------------
 <S^2> = 0.7529
 SCF time:  CPU 11.86 s  wall 16.10 s
 SCF   energy in the final basis set = -435.1206236773
 Total energy in the final basis set = -435.1206236773
================================================================================
|                                                                              |
|                                 A D C  M A N                                 |
|                                                                              |
 ------------------------------------------------------------------------------ 
|                                                                              |
| Components:                                                                  |
|                                                                              |
| - libvmm - 1.2-release                                                       |
|   Authors:                                                                   |
|   Evgeny Epifanovsky, Ilya Kaliman                                           |
|                                                                              |
| - libtensor - 2.4-trunk                                                      |
|   Authors:                                                                   |
|   Evgeny Epifanovsky, Michael Wormit, Dmitry Zuev, Sam Manzer                |
|                                                                              |
| - libwfa - 1.1-beta                                                          |
|   Authors:                                                                   |
|   Felix Plasser, Stefanie Baeppler, Benjamin Thomitzni, Michael Wormit       |
|                                                                              |
| - libadc - 1.0-beta                                                          |
|   Authors:                                                                   |
|   Michael Wormit, Philipp H. P. Harbach, Caroline Krauter, Dirk Rehn,        |
|   Matthias Schneider, Jan Wenzel                                             |
|                                                                              |
| - adcman - 2.4-beta                                                          |
|   Authors:                                                                   |
|   Michael Wormit, Philipp H. P. Harbach, Caroline Krauter, Dirk Rehn,        |
|   Jan Wenzel, Andreas Dreuw                                                  |
|                                                                              |
| Authors of earlier versions of ADCMAN:                                       |
| Andreas Dreuw, Jan Hendrik Starcke, Dirk Rehn, Michael Wormit                |
|                                                                              |
================================================================================

 
 Alpha MOs, Unrestricted
 -- Occupied --                  
-26.739 -26.739 -26.735 -26.615 -11.964  -2.143  -2.036  -2.030
  1 A     2 A     3 A     4 A     5 A     6 A     7 A     8 A                  
 -1.870  -1.316  -1.216  -1.215  -1.166  -1.061  -1.057  -1.041
  9 A    10 A    11 A    12 A    13 A    14 A    15 A    16 A                  
 -1.026  -1.018  -1.009  -0.927  -0.925
 17 A    18 A    19 A    20 A    21 A                                          
 -- Virtual --                   
 -0.304   0.125   0.127   0.139   0.348   0.381   0.384   0.457
 22 A    23 A    24 A    25 A    26 A    27 A    28 A    29 A                  
  0.947   0.990   1.009   1.021   1.025   1.037   1.171   1.204
 30 A    31 A    32 A    33 A    34 A    35 A    36 A    37 A                  
  1.229   1.298   1.300   1.315   1.372   1.387   1.416   1.575
 38 A    39 A    40 A    41 A    42 A    43 A    44 A    45 A                  
  1.631   1.633   1.736   1.744   1.784   1.808   1.808   1.825
 46 A    47 A    48 A    49 A    50 A    51 A    52 A    53 A                  
  1.859   1.865   1.910   1.920   1.942   2.018   2.020   2.078
 54 A    55 A    56 A    57 A    58 A    59 A    60 A    61 A                  
  2.468   2.493   2.501   2.685   2.833   2.836   3.118   3.120
 62 A    63 A    64 A    65 A    66 A    67 A    68 A    69 A                  
  3.275   3.710   4.252   4.438   4.455   6.536
 70 A    71 A    72 A    73 A    74 A    75 A                                  
 
 Beta MOs, Unrestricted
 -- Occupied --                  
-26.739 -26.739 -26.735 -26.567 -11.964  -2.143  -2.035  -2.031
  1 A     2 A     3 A     4 A     5 A     6 A     7 A     8 A                  
 -1.678  -1.316  -1.216  -1.215  -1.165  -1.058  -1.057  -1.027
  9 A    10 A    11 A    12 A    13 A    14 A    15 A    16 A                  
 -1.025  -1.009  -0.875  -0.873
 17 A    18 A    19 A    20 A                                                  
 -- Virtual --                   
 -0.304  -0.118   0.125   0.129   0.140   0.349   0.381   0.385
 21 A    22 A    23 A    24 A    25 A    26 A    27 A    28 A                  
  0.463   0.962   1.012   1.013   1.027   1.043   1.051   1.213
 29 A    30 A    31 A    32 A    33 A    34 A    35 A    36 A                  
  1.236   1.243   1.300   1.302   1.316   1.397   1.418   1.470
 37 A    38 A    39 A    40 A    41 A    42 A    43 A    44 A                  
  1.590   1.634   1.638   1.745   1.746   1.784   1.817   1.817
 45 A    46 A    47 A    48 A    49 A    50 A    51 A    52 A                  
  1.840   1.924   1.943   1.946   1.953   1.959   2.023   2.040
 53 A    54 A    55 A    56 A    57 A    58 A    59 A    60 A                  
  2.078   2.470   2.493   2.502   2.690   2.833   2.836   3.118
 61 A    62 A    63 A    64 A    65 A    66 A    67 A    68 A                  
  3.120   3.279   3.747   4.252   4.438   4.456   6.538
 69 A    70 A    71 A    72 A    73 A    74 A    75 A                          
 

--------------------------------------------------------------------------------
                                   HF Summary                                   
--------------------------------------------------------------------------------
  Energy:                                                 -435.1206236773 a.u.
  Dip. moment [a.u.]:                  [ -54.519981,  181.176788,    0.307309]
  Total dipole [Debye]:                                             480.904644
  <r^2> [a.u.]:                        [ 164.099342,  927.987196,   94.421674]
  Total <r^2> [a.u.]:                                              1186.508211
--------------------------------------------------------------------------------

--------------------------------------------------------------------------------
                                 MP(2) Summary                                  
--------------------------------------------------------------------------------
  Energy contribution:                                      -0.7562692934 a.u.
  Total energy:                                           -435.8768929707 a.u.
  Dip. moment [a.u.]:                  [ -54.437126,  181.389316,    0.234451]
  Total dipole [Debye]:                                             481.361104
  <r^2> [a.u.]:                        [ 163.648551,  930.412966,   94.170256]
  Total <r^2> [a.u.]:                                              1188.231773
--------------------------------------------------------------------------------
  Starting Davidson ... 
--------------------------------------------------------------------------------
   It NVec Conv  Avg. Norm  Max. Norm  Conv. states           Remark
--------------------------------------------------------------------------------
        20    0  2.061e-01  1.150e+00 10.9191 n n n n n n n n Guess.
    1   40    0  3.960e-02  4.643e-01 10.7547 n n n n n n n n 
    2   60    0  7.648e-03  7.826e-02 10.7535 n n n n n n n n 
    3   80    0  2.731e-03  3.095e-02 10.7534 n n n n n n n n 
    4  100    0  1.599e-03  2.005e-02 10.7534 n n n n n n n n 
    5   40    0  1.227e-03  1.794e-02 10.7534 n n n n n n n n Subspace collapsed.
    6   60    0  1.075e-03  1.367e-02 10.7534 n n n n n n n n 
    7   80    0  1.172e-03  1.508e-02 10.7534 n n n n n n n n 
    8  100    2  1.236e-03  1.634e-02 10.7534 y y n n n n n n 
    9   40    7  6.600e-04  8.356e-03 10.7534 y y y y y n y y Subspace collapsed.
   10   60    9  5.810e-04  7.838e-03 10.7534 y y y y y y y y 
   11   80    9  5.663e-04  7.274e-03 10.7534 y y y y y y y y 
   12  100   10  6.646e-04  8.707e-03 10.7534 y y y y y y y y 
   13   40   14  4.664e-04  6.250e-03 10.7534 y y y y y y y y Subspace collapsed.
   14   60   15  3.730e-04  5.018e-03 10.7534 y y y y y y y y 
   15   80   15  4.359e-04  6.058e-03 10.7534 y y y y y y y y 
   16   99   16  6.312e-04  1.016e-02 10.7534 y y y y y y y y 
   17  100   16  6.332e-04  1.019e-02 10.7534 y y y y y y y y 
   18   38   16  3.611e-04  5.228e-03 10.7534 y y y y y y y y Subspace collapsed.
   19   56   16  2.834e-04  3.948e-03 10.7534 y y y y y y y y 
   20   58   16  2.842e-04  4.023e-03 10.7534 y y y y y y y y 
   21   58   16  2.842e-04  4.023e-03 10.7534 y y y y y y y y 
   22   78   16  3.169e-04  4.502e-03 10.7534 y y y y y y y y 
   23   78   16  3.169e-04  4.502e-03 10.7534 y y y y y y y y 
   24   78   16  3.169e-04  4.502e-03 10.7534 y y y y y y y y 
   25   98   17  3.766e-04  4.625e-03 10.7534 y y y y y y y y 
   26  100   17  3.788e-04  4.667e-03 10.7534 y y y y y y y y 
   27   31   17  2.840e-04  4.341e-03 10.7534 y y y y y y y y Subspace collapsed.
   28   42   17  2.499e-04  4.012e-03 10.7534 y y y y y y y y 
   29   53   17  3.490e-04  6.177e-03 10.7534 y y y y y y y y 
   30   64   17  5.173e-04  9.780e-03 10.7534 y y y y y y y y 
   31   75   17  2.789e-03  5.551e-02 10.7534 y y y y y y y y 
   32   85   17  1.966e-03  3.666e-02 10.7534 y y y y y y y y 
   33   85   17  1.966e-03  3.666e-02 10.7534 y y y y y y y y 
   34   85   17  1.966e-03  3.666e-02 10.7534 y y y y y y y y 
   35  100   17  1.889e-03  3.690e-02 10.7534 y y y y y y y y 
   36   27   17  1.015e-03  2.019e-02 10.7534 y y y y y y y y Subspace collapsed.
   37   27   17  1.015e-03  2.019e-02 10.7534 y y y y y y y y 
   38   27   17  1.015e-03  2.019e-02 10.7534 y y y y y y y y 
   39   28   17  1.012e-03  2.013e-02 10.7534 y y y y y y y y 
   40   28   17  1.012e-03  2.013e-02 10.7534 y y y y y y y y 
   41   28   17  1.012e-03  2.013e-02 10.7534 y y y y y y y y 
   42   29   17  1.011e-03  2.011e-02 10.7534 y y y y y y y y 
   43   36   17  7.123e-04  1.419e-02 10.7534 y y y y y y y y 
   44   43   17  4.175e-04  8.307e-03 10.7534 y y y y y y y y 
   45   43   17  4.175e-04  8.307e-03 10.7534 y y y y y y y y 
   46   43   17  4.175e-04  8.307e-03 10.7534 y y y y y y y y 
   47   46   17  4.084e-04  8.125e-03 10.7534 y y y y y y y y 
   48   46   17  4.084e-04  8.125e-03 10.7534 y y y y y y y y 
   49   47   17  4.096e-04  8.149e-03 10.7534 y y y y y y y y 
   50   47   17  4.096e-04  8.149e-03 10.7534 y y y y y y y y 
   51   48   17  4.099e-04  8.155e-03 10.7534 y y y y y y y y 
   52   55   17  3.001e-04  5.970e-03 10.7534 y y y y y y y y 
   53   55   17  3.001e-04  5.970e-03 10.7534 y y y y y y y y 
   54   56   17  2.994e-04  5.956e-03 10.7534 y y y y y y y y 
   55   56   17  2.994e-04  5.956e-03 10.7534 y y y y y y y y 
   56   57   17  2.993e-04  5.955e-03 10.7534 y y y y y y y y 
   57   57   17  2.993e-04  5.955e-03 10.7534 y y y y y y y y 
   58   57   17  2.993e-04  5.955e-03 10.7534 y y y y y y y y 
   59   57   17  2.993e-04  5.955e-03 10.7534 y y y y y y y y 
--------------------------------------------------------------------------------
  Davidson Summary: 
 ------------------------------------------------------------
  State  0: excitation energy =  10.7534 a.u.   (converged)
  State  1: excitation energy =  10.8227 a.u.   (converged)
  State  2: excitation energy =  11.1614 a.u.   (converged)
  State  3: excitation energy =  11.1667 a.u.   (converged)
  State  4: excitation energy =  11.1837 a.u.   (converged)
  State  5: excitation energy =  11.1860 a.u.   (converged)
  State  6: excitation energy =  11.2353 a.u.   (converged)
  State  7: excitation energy =  11.2410 a.u.   (converged)
  State  8: excitation energy =  11.2634 a.u.   (converged)
  State  9: excitation energy =  11.5172 a.u.   (converged)
  State 10: excitation energy =  11.5657 a.u.   (converged)
  State 11: excitation energy =  11.5659 a.u.   (converged)
  State 12: excitation energy =  11.5679 a.u.   (converged)
  State 13: excitation energy =  11.5843 a.u.   (converged)
  State 14: excitation energy =  11.5849 a.u.   (converged)
  State 15: excitation energy =  11.6634 a.u.   (converged)
  State 16: excitation energy =  11.6855 a.u.   (converged)
  State 17: excitation energy =  12.2104 a.u.   (not converged)
  State 18: excitation energy =  12.2116 a.u.   (not converged)
  State 19: excitation energy =  12.2135 a.u.   (not converged)
 ------------------------------------------------------------


--------------------------------------------------------------------------------
                             Excited State Summary
--------------------------------------------------------------------------------

  Excited state  1 (A)                                             [converged]
  ----------------------------------------------------------------------------
  Term symbol:  2 (-) A                                     R^2 =  1.57487e-14

  Total energy:                                           -425.1234617118 a.u.
  Excitation energy:                                             292.615746 eV

  Osc. strength:                                                      0.000000
  Trans. dip. moment [a.u.]:           [   0.000058,    0.000141,   -0.000043]
  <i|r^2|0> [a.u.]:                    [  -0.000084,    0.001626,    0.000053]

  V1^2 = 0.9548, V2^2 = 0.0452

  Important amplitudes:
     core i     occ j      vir a      vir b          v   
    ------------------------------------------------------
     5 (A) A              22 (A) A                 0.6553
     5 (A) B              21 (A) B                -0.6537
    ------------------------------------------------------
  ----------------------------------------------------------------------------


  Excited state  2 (A)                                             [converged]
  ----------------------------------------------------------------------------
  Term symbol:  3 (-) A                                     R^2 =  2.31480e-14

  Total energy:                                           -425.0541549251 a.u.
  Excitation energy:                                             294.501680 eV

  Osc. strength:                                                      0.087561
  Trans. dip. moment [a.u.]:           [   0.037687,    0.097693,   -0.034228]
  <i|r^2|0> [a.u.]:                    [  -0.055428,    1.122207,    0.039982]

  V1^2 = 0.9491, V2^2 = 0.0509

  Important amplitudes:
     core i     occ j      vir a      vir b          v   
    ------------------------------------------------------
     5 (A) B              21 (A) B                 0.6665
     5 (A) A              22 (A) A                 0.6649
    ------------------------------------------------------
  ----------------------------------------------------------------------------


  Excited state  3 (A)                                             [converged]
  ----------------------------------------------------------------------------
  Term symbol:  4 (-) A                                     R^2 =  1.06051e-13

  Total energy:                                           -424.7154674528 a.u.
  Excitation energy:                                             303.717835 eV

  Osc. strength:                                                      0.000000
  Trans. dip. moment [a.u.]:           [   0.000002,    0.000002,    0.000001]
  <i|r^2|0> [a.u.]:                    [  -0.000002,    0.000020,   -0.000000]

  V1^2 = 0.9497, V2^2 = 0.0503

  Important amplitudes:
     core i     occ j      vir a      vir b          v   
    ------------------------------------------------------
     5 (A) A              23 (A) A                -0.5537
     5 (A) B              23 (A) B                 0.5536
    ------------------------------------------------------
  ----------------------------------------------------------------------------


  Excited state  4 (A)                                             [converged]
  ----------------------------------------------------------------------------
  Term symbol:  5 (-) A                                     R^2 =  6.81010e-14

  Total energy:                                           -424.7101613266 a.u.
  Excitation energy:                                             303.862222 eV

  Osc. strength:                                                      0.000001
  Trans. dip. moment [a.u.]:           [  -0.000322,    0.000173,    0.000135]
  <i|r^2|0> [a.u.]:                    [   0.000547,    0.001983,   -0.000136]

  V1^2 = 0.9481, V2^2 = 0.0519

  Important amplitudes:
     core i     occ j      vir a      vir b          v   
    ------------------------------------------------------
     5 (A) B              24 (A) B                -0.5441
     5 (A) A              24 (A) A                 0.5407
    ------------------------------------------------------
  ----------------------------------------------------------------------------


  Excited state  5 (A)                                             [converged]
  ----------------------------------------------------------------------------
  Term symbol:  6 (-) A                                     R^2 =  5.89131e-14

  Total energy:                                           -424.6932342272 a.u.
  Excitation energy:                                             304.322831 eV

  Osc. strength:                                                      0.000183
  Trans. dip. moment [a.u.]:           [  -0.004099,    0.002192,    0.001728]
  <i|r^2|0> [a.u.]:                    [   0.007026,    0.025069,   -0.001753]

  V1^2 = 0.8463, V2^2 = 0.1537

  Important amplitudes:
     core i     occ j      vir a      vir b          v   
    ------------------------------------------------------
     5 (A) B              22 (A) B                -0.9071
     5 (A) A              24 (A) A                -0.0985
    ------------------------------------------------------
  ----------------------------------------------------------------------------


  Excited state  6 (A)                                             [converged]
  ----------------------------------------------------------------------------
  Term symbol:  7 (-) A                                     R^2 =  8.35265e-14

  Total energy:                                           -424.6908981562 a.u.
  Excitation energy:                                             304.386399 eV

  Osc. strength:                                                      0.000000
  Trans. dip. moment [a.u.]:           [   0.000019,   -0.000132,    0.000022]
  <i|r^2|0> [a.u.]:                    [  -0.000003,   -0.001448,    0.000012]

  V1^2 = 0.9304, V2^2 = 0.0696

  Important amplitudes:
     core i     occ j      vir a      vir b          v   
    ------------------------------------------------------
     5 (A) A              25 (A) A                 0.6208
     5 (A) B              25 (A) B                -0.6192
    ------------------------------------------------------
  ----------------------------------------------------------------------------


  Excited state  7 (A)                                             [converged]
  ----------------------------------------------------------------------------
  Term symbol:  8 (-) A                                     R^2 =  1.35281e-13

  Total energy:                                           -424.6415560418 a.u.
  Excitation energy:                                             305.729066 eV

  Osc. strength:                                                      0.112299
  Trans. dip. moment [a.u.]:           [   0.056663,    0.022215,    0.106248]
  <i|r^2|0> [a.u.]:                    [  -0.100079,    0.249708,   -0.096369]

  V1^2 = 0.9409, V2^2 = 0.0591

  Important amplitudes:
     core i     occ j      vir a      vir b          v   
    ------------------------------------------------------
     5 (A) B              23 (A) B                 0.5888
     5 (A) A              23 (A) A                 0.5887
    ------------------------------------------------------
  ----------------------------------------------------------------------------


  Excited state  8 (A)                                             [converged]
  ----------------------------------------------------------------------------
  Term symbol:  9 (-) A                                     R^2 =  9.74132e-14

  Total energy:                                           -424.6359272500 a.u.
  Excitation energy:                                             305.882234 eV

  Osc. strength:                                                      0.112301
  Trans. dip. moment [a.u.]:           [  -0.101398,    0.053435,    0.042996]
  <i|r^2|0> [a.u.]:                    [   0.176226,    0.609469,   -0.044044]

  V1^2 = 0.9407, V2^2 = 0.0593

  Important amplitudes:
     core i     occ j      vir a      vir b          v   
    ------------------------------------------------------
     5 (A) B              24 (A) B                -0.5877
     5 (A) A              24 (A) A                -0.5829
    ------------------------------------------------------
  ----------------------------------------------------------------------------


  Excited state  9 (A)                                             [converged]
  ----------------------------------------------------------------------------
  Term symbol:  10 (-) A                                    R^2 =  5.49658e-14

  Total energy:                                           -424.6135200676 a.u.
  Excitation energy:                                             306.491964 eV

  Osc. strength:                                                      0.034523
  Trans. dip. moment [a.u.]:           [   0.017024,    0.058358,   -0.030036]
  <i|r^2|0> [a.u.]:                    [  -0.045873,    0.637930,    0.010264]

  V1^2 = 0.9190, V2^2 = 0.0810

  Important amplitudes:
     core i     occ j      vir a      vir b          v   
    ------------------------------------------------------
     5 (A) B              25 (A) B                -0.6456
     5 (A) A              25 (A) A                -0.6416
    ------------------------------------------------------
  ----------------------------------------------------------------------------


  Excited state 10 (A)                                             [converged]
  ----------------------------------------------------------------------------
  Term symbol:  11 (-) A                                    R^2 =  5.34341e-14

  Total energy:                                           -424.3597281772 a.u.
  Excitation energy:                                             313.397993 eV

  Osc. strength:                                                      0.000000
  Trans. dip. moment [a.u.]:           [   0.000010,    0.000033,   -0.000010]
  <i|r^2|0> [a.u.]:                    [  -0.000020,    0.000376,    0.000007]

  V1^2 = 0.9178, V2^2 = 0.0822

  Important amplitudes:
     core i     occ j      vir a      vir b          v   
    ------------------------------------------------------
     5 (A) B              26 (A) B                -0.6430
     5 (A) A              26 (A) A                 0.6418
    ------------------------------------------------------
  ----------------------------------------------------------------------------


  Excited state 11 (A)                                             [converged]
  ----------------------------------------------------------------------------
  Term symbol:  12 (-) A                                    R^2 =  1.64752e-13

  Total energy:                                           -424.3111772021 a.u.
  Excitation energy:                                             314.719132 eV

  Osc. strength:                                                      0.000001
  Trans. dip. moment [a.u.]:           [  -0.000105,   -0.000168,   -0.000239]
  <i|r^2|0> [a.u.]:                    [   0.000147,   -0.001943,    0.000180]

  V1^2 = 0.8958, V2^2 = 0.1042

  Important amplitudes:
     core i     occ j      vir a      vir b          v   
    ------------------------------------------------------
     5 (A) A              27 (A) A                 0.5461
     5 (A) B              27 (A) B                -0.5413
    ------------------------------------------------------
  ----------------------------------------------------------------------------


  Excited state 12 (A)                                             [converged]
  ----------------------------------------------------------------------------
  Term symbol:  13 (-) A                                    R^2 =  5.10698e-13

  Total energy:                                           -424.3109803603 a.u.
  Excitation energy:                                             314.724488 eV

  Osc. strength:                                                      0.000113
  Trans. dip. moment [a.u.]:           [   0.003188,   -0.001625,   -0.001349]
  <i|r^2|0> [a.u.]:                    [  -0.005510,   -0.018404,    0.001316]

  V1^2 = 0.8957, V2^2 = 0.1043

  Important amplitudes:
     core i     occ j      vir a      vir b          v   
    ------------------------------------------------------
     5 (A) A              28 (A) A                -0.5703
     5 (A) B              28 (A) B                 0.5084
    ------------------------------------------------------
  ----------------------------------------------------------------------------


  Excited state 13 (A)                                             [converged]
  ----------------------------------------------------------------------------
  Term symbol:  14 (-) A                                    R^2 =  9.38970e-13

  Total energy:                                           -424.3090016885 a.u.
  Excitation energy:                                             314.778331 eV

  Osc. strength:                                                      0.023232
  Trans. dip. moment [a.u.]:           [  -0.019306,   -0.048779,    0.016136]
  <i|r^2|0> [a.u.]:                    [   0.012362,   -0.574743,   -0.035334]

  V1^2 = 0.9177, V2^2 = 0.0823

  Important amplitudes:
     core i     occ j      vir a      vir b          v   
    ------------------------------------------------------
     5 (A) A              26 (A) A                 0.6639
     5 (A) B              26 (A) B                 0.6636
    ------------------------------------------------------
  ----------------------------------------------------------------------------


  Excited state 14 (A)                                             [converged]
  ----------------------------------------------------------------------------
  Term symbol:  15 (-) A                                    R^2 =  7.09721e-13

  Total energy:                                           -424.2925477100 a.u.
  Excitation energy:                                             315.226066 eV

  Osc. strength:                                                      0.035334
  Trans. dip. moment [a.u.]:           [   0.029506,    0.009454,    0.060127]
  <i|r^2|0> [a.u.]:                    [  -0.051636,    0.106614,   -0.053694]

  V1^2 = 0.8990, V2^2 = 0.1010

  Important amplitudes:
     core i     occ j      vir a      vir b          v   
    ------------------------------------------------------
     5 (A) B              27 (A) B                -0.5846
     5 (A) A              27 (A) A                -0.5800
    ------------------------------------------------------
  ----------------------------------------------------------------------------


  Excited state 15 (A)                                             [converged]
  ----------------------------------------------------------------------------
  Term symbol:  16 (-) A                                    R^2 =  1.92935e-12

  Total energy:                                           -424.2919646862 a.u.
  Excitation energy:                                             315.241931 eV

  Osc. strength:                                                      0.035834
  Trans. dip. moment [a.u.]:           [   0.056646,   -0.029964,   -0.023089]
  <i|r^2|0> [a.u.]:                    [  -0.098369,   -0.339772,    0.021958]

  V1^2 = 0.8989, V2^2 = 0.1011

  Important amplitudes:
     core i     occ j      vir a      vir b          v   
    ------------------------------------------------------
     5 (A) B              28 (A) B                -0.6098
     5 (A) A              28 (A) A                -0.5488
    ------------------------------------------------------
  ----------------------------------------------------------------------------


  Excited state 16 (A)                                             [converged]
  ----------------------------------------------------------------------------
  Term symbol:  17 (-) A                                    R^2 =  7.95503e-11

  Total energy:                                           -424.2135207098 a.u.
  Excitation energy:                                             317.376500 eV

  Osc. strength:                                                      0.000355
  Trans. dip. moment [a.u.]:           [  -0.002198,   -0.005964,    0.002292]
  <i|r^2|0> [a.u.]:                    [   0.005958,   -0.065754,    0.000137]

  V1^2 = 0.8853, V2^2 = 0.1147

  Important amplitudes:
     core i     occ j      vir a      vir b          v   
    ------------------------------------------------------
     5 (A) A              29 (A) A                -0.7056
     5 (A) B              29 (A) B                 0.5025
    ------------------------------------------------------
  ----------------------------------------------------------------------------


  Excited state 17 (A)                                             [converged]
  ----------------------------------------------------------------------------
  Term symbol:  18 (-) A                                    R^2 =  2.53567e-09

  Total energy:                                           -424.1914252456 a.u.
  Excitation energy:                                             317.977748 eV

  Osc. strength:                                                      0.013844
  Trans. dip. moment [a.u.]:           [  -0.013796,   -0.037235,    0.014151]
  <i|r^2|0> [a.u.]:                    [   0.036523,   -0.411355,    0.000200]

  V1^2 = 0.8872, V2^2 = 0.1128

  Important amplitudes:
     core i     occ j      vir a      vir b          v   
    ------------------------------------------------------
     5 (A) B              29 (A) B                -0.7302
     5 (A) A              29 (A) A                -0.5315
    ------------------------------------------------------
  ----------------------------------------------------------------------------


  Excited state 18 (A)                                         [not converged]
  ----------------------------------------------------------------------------
  Term symbol:  19 (-) A                                    R^2 =  5.95534e-03

  Total energy:                                           -423.6664876513 a.u.
  Excitation energy:                                             332.262027 eV


  V1^2 = 0.8636, V2^2 = 0.1364

  Important amplitudes:
     core i     occ j      vir a      vir b          v   
    ------------------------------------------------------
     5 (A) A              33 (A) A                -0.7484
     5 (A) A              31 (A) A                -0.4065
    ------------------------------------------------------
  ----------------------------------------------------------------------------


  Excited state 19 (A)                                         [not converged]
  ----------------------------------------------------------------------------
  Term symbol:  20 (-) A                                    R^2 =  4.80138e-04

  Total energy:                                           -423.6652849183 a.u.
  Excitation energy:                                             332.294755 eV


  V1^2 = 0.8540, V2^2 = 0.1460

  Important amplitudes:
     core i     occ j      vir a      vir b          v   
    ------------------------------------------------------
     5 (A) A              34 (A) A                 0.7511
     5 (A) B              33 (A) B                -0.3540
    ------------------------------------------------------
  ----------------------------------------------------------------------------


  Excited state 20 (A)                                         [not converged]
  ----------------------------------------------------------------------------
  Term symbol:  21 (-) A                                    R^2 =  3.67516e-04

  Total energy:                                           -423.6634280038 a.u.
  Excitation energy:                                             332.345284 eV


  V1^2 = 0.8606, V2^2 = 0.1394

  Important amplitudes:
     core i     occ j      vir a      vir b          v   
    ------------------------------------------------------
     5 (A) B              33 (A) B                 0.7868
     5 (A) A              34 (A) A                 0.3258
    ------------------------------------------------------
  ----------------------------------------------------------------------------


--------------------------------------------------------------------------------
  Time of ADC calculation:  CPU 1295.29 s  wall 1333.67 s
================================================================================
 
 --------------------------------------------------------------
 
                    Orbital Energies (a.u.)
 --------------------------------------------------------------
 
 Alpha MOs
 -- Occupied --
-26.739 -26.739 -26.735 -26.615 -11.964  -2.143  -2.036  -2.030
 -1.870  -1.316  -1.216  -1.215  -1.166  -1.061  -1.057  -1.041
 -1.026  -1.018  -1.009  -0.927  -0.925
 -- Virtual --
 -0.304   0.125   0.127   0.139   0.348   0.381   0.384   0.457
  0.947   0.990   1.009   1.021   1.025   1.037   1.171   1.204
  1.229   1.298   1.300   1.315   1.372   1.387   1.416   1.575
  1.631   1.633   1.736   1.744   1.784   1.808   1.808   1.825
  1.859   1.865   1.910   1.920   1.942   2.018   2.020   2.078
  2.468   2.493   2.501   2.685   2.833   2.836   3.118   3.120
  3.275   3.710   4.252   4.438   4.455   6.536
 
 Beta MOs
 -- Occupied --
-26.739 -26.739 -26.735 -26.567 -11.964  -2.143  -2.035  -2.031
 -1.678  -1.316  -1.216  -1.215  -1.165  -1.058  -1.057  -1.027
 -1.025  -1.009  -0.875  -0.873
 -- Virtual --
 -0.304  -0.118   0.125   0.129   0.140   0.349   0.381   0.385
  0.463   0.962   1.012   1.013   1.027   1.043   1.051   1.213
  1.236   1.243   1.300   1.302   1.316   1.397   1.418   1.470
  1.590   1.634   1.638   1.745   1.746   1.784   1.817   1.817
  1.840   1.924   1.943   1.946   1.953   1.959   2.023   2.040
  2.078   2.470   2.493   2.502   2.690   2.833   2.836   3.118
  3.120   3.279   3.747   4.252   4.438   4.456   6.538
 --------------------------------------------------------------
 
          Ground-State Mulliken Net Atomic Charges

     Atom                 Charge (a.u.)    Spin (a.u.)
  --------------------------------------------------------
      1 C                     1.343103      -0.005806
      2 F                    -0.118603       0.001134
      3 F                    -0.118975       0.001078
      4 F                     0.018593       1.003517
      5 F                    -0.124118       0.000076
  --------------------------------------------------------
  Sum of atomic charges =     1.000000
  Sum of spin   charges =     1.000000

 -----------------------------------------------------------------
                    Cartesian Multipole Moments
 -----------------------------------------------------------------
    Charge (ESU x 10^10)
                 4.8032
    Dipole Moment (Debye)
         X      -2.1304      Y      14.4967      Z      -1.1450
       Tot      14.6971
    Quadrupole Moments (Debye-Ang)
        XX     -19.6038     XY      -6.1735     YY      24.0667
        XZ       0.0561     YZ      -3.8742     ZZ     -20.7641
    Octopole Moments (Debye-Ang^2)
       XXX      41.8006    XXY     -46.8767    XYY      -3.2148
       YYY      -7.5853    XXZ       1.2323    XYZ       0.4274
       YYZ     -12.8450    XZZ      13.4625    YZZ     -48.8524
       ZZZ       0.4320
    Hexadecapole Moments (Debye-Ang^3)
      XXXX    -129.6746   XXXY      93.8887   XXYY    -152.5236
      XYYY      44.7543   YYYY    -365.3438   XXXZ      -0.0373
      XXYZ       5.0665   XYYZ       2.5172   YYYZ     -34.5311
      XXZZ     -32.5748   XYZZ      29.7940   YYZZ    -145.5073
      XZZZ       2.2979   YZZZ       9.9698   ZZZZ     -75.1756
 -----------------------------------------------------------------
Archival summary:
1\1\tp-linux1\SP\HF\6-31G*\41(1+,2)\thomas\WedMar2219:12:272017WedMar2219:12:272017\0\\#,HF,6-31G*,\\1,2\F\C,1,1.25424\F,2,1.25474,1,114.169\F,2,1.26188,1,113.864,3,133.088,0\F,1,2.47046,2,75.9906,3,-65.1245,0\\HF=-435.120624\\@

 Total job time:  1351.76s(wall), 1308.92s(cpu) 
 Wed Mar 22 19:12:27 2017

        *************************************************************
        *                                                           *
        *  Thank you very much for using Q-Chem.  Have a nice day.  *
        *                                                           *
        *************************************************************


0 sent ACK to 0 
now end server 0 ... 
cleanup process ... done
