
Running Job 1 of 1 ddtraj1t28.inp
qchem ddtraj1t28.inp_20922.0 /scratch/qchem/qchem20922/ 1
/mnt/software/qchem/bin/mpi/mpirun_qchem -machinefile /mnt/software/qchem/bin/mpi/machines -np 1 /mnt/software/qchem/exe/qcprog.exe ddtraj1t28.inp_20922.0 /scratch/qchem/qchem20922/

Process 0 of 1 is on tp-linux1 - thread support 0
initial socket setup ...start
initial socket setup ...done 
now start server 0 ... 

cmd = ssh tp-linux1 /mnt/software/qchem/bin/get_hostid 1237192105 > /scratch/qchem/qchem20922/lic.dat
                  Welcome to Q-Chem
     A Quantum Leap Into The Future Of Chemistry


 Q-Chem 4.3, Q-Chem, Inc., Pleasanton, CA (2015)

 Y. Shao,  Z. Gan,  E. Epifanovsky,  A. T. B. Gilbert,  M. Wormit,  
 J. Kussmann,  A. W. Lange,  A. Behn,  J. Deng,  X. Feng,  D. Ghosh,  
 M. Goldey,  P. R. Horn,  L. D. Jacobson,  I. Kaliman,  R. Z. Khaliullin,  
 T. Kus,  A. Landau,  J. Liu,  E. I. Proynov,  Y. M. Rhee,  R. M. Richard,  
 M. A. Rohrdanz,  R. P. Steele,  E. J. Sundstrom,  H. L. Woodcock III,  
 P. M. Zimmerman,  D. Zuev,  B. Albrecht,  E. Alguire,  B. Austin,  
 S. A. Baeppler,  G. J. O. Beran,  Y. A. Bernard,  E. Berquist,  
 K. Brandhorst,  K. B. Bravaya,  S. T. Brown,  D. Casanova,  C.-M. Chang,  
 Y. Chen,  S. H. Chien,  K. D. Closser,  D. L. Crittenden,  M. Diedenhofen,  
 R. A. DiStasio Jr.,  H. Do,  A. D. Dutoi,  R. G. Edgar,  P.-T. Fang,  
 S. Fatehi,  Q. Feng,  L. Fusti-Molnar,  A. Ghysels,  
 A. Golubeva-Zadorozhnaya,  J. Gomes,  A. Gunina,  M. W. D. Hanson-Heine,  
 P. H. P. Harbach,  A. W. Hauser,  E. G. Hohenstein,  Z. C. Holden,  K. Hui,  
 T.-C. Jagau,  H. Ji,  B. Kaduk,  K. Khistyaev,  Jaehoon Kim,  Jihan Kim,  
 R. A. King,  P. Klunzinger,  D. Kosenkov,  T. Kowalczyk,  C. M. Krauter,  
 K. U. Lao,  A. Laurent,  K. V. Lawler,  S. Lehtola,  S. V. Levchenko,  
 C. Y. Lin,  Y.-S. Lin,  F. Liu,  E. Livshits,  R. C. Lochan,  A. Luenser,  
 P. Manohar,  S. F. Manzer,  S.-P. Mao,  N. Mardirossian,  A. V. Marenich,  
 L. A. Martinez-Martinez,  S. A. Maurer,  N. J. Mayhall,  K. Nanda,  
 C. M. Oana,  R. Olivares-Amaya,  D. P. O'Neill,  J. A. Parkhill,  
 T. M. Perrine,  R. Peverati,  P. A. Pieniazek,  F. Plasser,  A. Prociuk,  
 D. R. Rehn,  E. Rosta,  N. J. Russ,  N. Sergueev,  S. M. Sharada,  
 S. Sharma,  D. W. Small,  A. Sodt,  T. Stauch,  T. Stein,  D. Stuck,  
 Y.-C. Su,  A. J. W. Thom,  T. Tsuchimochi,  L. Vogt,  O. Vydrov,  T. Wang,  
 M. A. Watson,  J. Wenzel,  A. White,  C. F. Williams,  V. Vanovschi,  
 S. Yeganeh,  S. R. Yost,  Z.-Q. You,  I. Y. Zhang,  X. Zhang,  Y. Zhao,  
 B. R. Brooks,  G. K. L. Chan,  D. M. Chipman,  C. J. Cramer,  
 W. A. Goddard III,  M. S. Gordon,  W. J. Hehre,  A. Klamt,  
 H. F. Schaefer III,  M. W. Schmidt,  C. D. Sherrill,  D. G. Truhlar,  
 A. Warshel,  X. Xu,  A. Aspuru-Guzik,  R. Baer,  A. T. Bell,  N. A. Besley,  
 J.-D. Chai,  A. Dreuw,  B. D. Dunietz,  T. R. Furlani,  S. R. Gwaltney,  
 C.-P. Hsu,  Y. Jung,  J. Kong,  D. S. Lambrecht,  W. Liang,  C. Ochsenfeld,  
 V. A. Rassolov,  L. V. Slipchenko,  J. E. Subotnik,  T. Van Voorhis,  
 J. M. Herbert,  A. I. Krylov,  P. M. W. Gill,  M. Head-Gordon

 Contributors to earlier versions of Q-Chem not listed above: 
 R. D. Adamson,  J. Baker,  E. F. C. Byrd,  A. K. Chakraborty,  C.-L. Cheng,  
 H. Dachsel,  R. J. Doerksen,  G. Hawkins,  A. Heyden,  S. Hirata,  
 G. Kedziora,  F. J. Keil,  C. Kelley,  P. P. Korambath,  W. Kurlancheek,  
 A. M. Lee,  M. S. Lee,  D. Liotard,  I. Lotan,  P. E. Maslen,  N. Nair,  
 D. Neuhauser,  R. Olson,  B. Peters,  J. Ritchie,  N. E. Schultz,  
 N. Shenvi,  A. C. Simmonett,  K. S. Thanthiriwatte,  Q. Wu,  W. Zhang

 Please cite Q-Chem as follows:
 Y. Shao et al., Mol. Phys. 113, 184-215 (2015)
 DOI: 10.1080/00268976.2014.952696

 Q-Chem 4.3.0 for Intel X86 Linux

 Parts of Q-Chem use Armadillo 5.200.1 (Boston Tea Smuggler).
 http://arma.sourceforge.net/

 Q-Chem begins on Wed Mar 22 11:30:10 2017  

Host: 
0

     Scratch files written to /scratch/qchem/qchem20922//
 Nov1815 1189b_ 19540  19532 5443   
 Parallel job on  1  processors
Processing $rem in /mnt/software/qchem/config/preferences.
 MEM_TOTAL  2000 

Checking the input file for inconsistencies... 	...done.

--------------------------------------------------------------
User input:
--------------------------------------------------------------
$comment
XAS calculation for valence excited states for CF4+ using cvs-adc(2) + 6-31G* basis set
job 1 - determination of HF orbitals
$end

$molecule
1 2
6  -0.500858  2.890421  -0.209517
9  0.597489  2.446  -0.044385
9  -1.08864  3.364242  0.718429
9  -1.357353  0.559806  0.690422
9  -1.074214  2.687088  -1.232128
$end

$comment
cvs-adc(2) calculation
$end

$rem
mem_total 3000
mem_static 1500
sym_ignore true
method cvs-adc(2)
basis 6-31G*
ee_singlets 20
cc_rest_occ 5                  !only excitations from the lowest N orbitals
unrestricted  true
max_scf_cycles 200
SCF_ALGORITHM = DIIS_GDM
SCF_CONVERGENCE = 7
THRESH = 10
$end
--------------------------------------------------------------
 ----------------------------------------------------------------
             Standard Nuclear Orientation (Angstroms)
    I     Atom           X                Y                Z
 ----------------------------------------------------------------
    1      C      -0.5008580000     2.8904210000    -0.2095170000
    2      F       0.5974890000     2.4460000000    -0.0443850000
    3      F      -1.0886400000     3.3642420000     0.7184290000
    4      F      -1.3573530000     0.5598060000     0.6904220000
    5      F      -1.0742140000     2.6870880000    -1.2321280000
 ----------------------------------------------------------------
 Nuclear Repulsion Energy =   190.1964936193 hartrees
 There are       21 alpha and       20 beta electrons
 Requested basis set is 6-31G(d)
 There are 20 shells and 75 basis functions

 Total QAlloc Memory Limit   3000 MB
 Mega-Array Size      1467 MB
 MEM_STATIC part      1500 MB

                       Distance Matrix (Angstroms)
             C (  1)   F (  2)   F (  3)   F (  4)
   F (  2)  1.196305
   F (  3)  1.196277  2.065934
   F (  4)  2.641068  2.814085  2.817419
   F (  5)  1.189880  2.064812  2.064805  2.881266
 
 tim1(1): 
  4.000000000000004E-003
 tim1(2): 
  0.000000000000000E+000
 A cutoff of  1.0D-10 yielded    196 shell pairs
 There are      2950 function pairs
 
 -------------------------------------------------------
 OpenMP Integral Computing Module                       
 Release: version 1.0, May 2013, Q-Chem Inc. Pittsburgh 
 -------------------------------------------------------
 Integral Job Info:
 Integral job number is                      11
 Integral operator is                         1
 short-range coefficients                     0
 long-range coefficients              100000000
 Omega coefficients                           0
 if combine SR and LR in K                    0
 Integral screening is                        0
 Integral computing path is                   2
 max size of driver memory is            800000
 size of driver memory is                593474
 size of scratch memory is              2260544
 max col of scratch BK array               1296
 max len of scratch array in speh3          155
 max len of scratch index in speh4           18
 max int batch size is                      520
 min int batch size is                       52
 fixed nKL is                                52
 max L of basis functions is                  2
 order of int derivative is                   0
 number of shells is                         20
 number of basis is                          75
 number of cartesian basis is                75
 number of contracted shell pairs           196
 number of primitive shell pairs           1000
 maxK2 (contraction) of shell pair           36
 max number of K2 of shell pair               1
 max number of CS2 of shell pair             32
 max number of PS2 of shell pair            192
 mem total for path MDJ                   21832
 -------------------------------------------------------
 Smallest overlap matrix eigenvalue = 2.82E-03

 Scale SEOQF with 1.000000e+00/1.000000e-01/1.000000e+00

 Standard Electronic Orientation quadrupole field applied
 Nucleus-field energy     =     0.0000000102 hartrees
 Guess from superposition of atomic densities
 Warning:  Energy on first SCF cycle will be non-variational
 An unrestricted Hartree-Fock SCF calculation will be
 performed using Pulay DIIS + Geometric Direct Minimization
 SCF converges when RMS gradient is below 1.0E-07
 ---------------------------------------
  Cycle       Energy         DIIS Error
 ---------------------------------------
    1    -436.6275886475      9.78E-02
    2    -434.9984876916      1.75E-02
    3    -435.1471899698      7.66E-03 Done DIIS. Switching to GDM
    4    -435.1738458196      8.94E-03 Normal BFGS step
    5    -435.1747287326      7.77E-03 Normal BFGS step
    6    -435.1750101631      2.66E-03 Normal BFGS step
    7    -435.1750359025      2.60E-03 Normal BFGS step
    8    -435.1750500490      2.52E-03 Normal BFGS step
    9    -435.1750731449      2.37E-03 Normal BFGS step
   10    -435.1751181815      2.05E-03 Normal BFGS step
   11    -435.1751962268      2.10E-03 Normal BFGS step
   12    -435.1752855359      1.80E-03 Normal BFGS step
   13    -435.1753366624      8.13E-04 Normal BFGS step
   14    -435.1753475021      1.39E-04 Normal BFGS step
   15    -435.1753481893      7.76E-05 Normal BFGS step
   16    -435.1753482531      3.89E-05 Normal BFGS step
   17    -435.1753482629      1.80E-05 Normal BFGS step
   18    -435.1753482644      1.80E-05 Normal BFGS step
   19    -435.1753482656      1.80E-05 Normal BFGS step
   20    -435.1753482664      1.80E-05 Normal BFGS step
   21    -435.1753482686      1.80E-05 Normal BFGS step
   22    -435.1753482729      2.27E-05 Normal BFGS step
   23    -435.1753482844      4.17E-05 Normal BFGS step
   24    -435.1753483132      7.17E-05 Normal BFGS step
   25    -435.1753483894      1.20E-04 Normal BFGS step
   26    -435.1753485921      2.02E-04 Normal BFGS step
   27    -435.1753490645      3.39E-04 Normal BFGS step
   28    -435.1753496203      6.44E-04 Normal BFGS step
   29    -435.1753512002      8.43E-04 Normal BFGS step
   30    -435.1753538030      2.56E-04 Normal BFGS step
   31    -435.1753533143      4.44E-03 Line search: overstep
   32    -435.1753542025      5.26E-04 Normal BFGS step
   33    -435.1753551066      6.45E-04 Normal BFGS step
   34    -435.1753566833      6.45E-04 Normal BFGS step
   35    -435.1753580901      5.42E-04 Normal BFGS step
   36    -435.1753600567      9.63E-04 Normal BFGS step
   37    -435.1753578396      2.26E-03 Line search: overstep
   38    -435.1753615984      6.84E-04 Dog-leg BFGS step
   39    -435.1753614848      5.26E-03 Line search: overstep
   40    -435.1753625649      6.29E-04 Dog-leg BFGS step
   41    -435.1753642196      5.46E-04 Dog-leg BFGS step
   42    -435.1753651259      4.04E-04 Dog-leg BFGS step
   43    -435.1753660324      2.53E-04 Dog-leg BFGS step
   44    -435.1753667281      3.25E-04 Dog-leg BFGS step
   45    -435.1753675675      1.05E-04 Dog-leg BFGS step
   46    -435.1753682227      1.71E-04 Dog-leg BFGS step
   47    -435.1753691071      6.11E-04 Normal BFGS step
   48    -435.1753698824      6.57E-04 Normal BFGS step
   49    -435.1753715179      1.01E-04 Normal BFGS step
   50    -435.1753660823      8.13E-03 Line search: overstep
   51    -435.1753719036      2.01E-04 Dog-leg BFGS step
   52    -435.1753719514      1.08E-03 Normal BFGS step
   53    -435.1753727861      1.02E-04 Normal BFGS step
   54    -435.1753731319      1.18E-04 Normal BFGS step
   55    -435.1753723637      4.07E-03 Line search: overstep
   56    -435.1753735493      2.82E-04 Normal BFGS step
   57    -435.1753738363      4.75E-04 Normal BFGS step
   58    -435.1753741383      9.27E-05 Normal BFGS step
   59    -435.1753742576      9.48E-05 Normal BFGS step
   60    -435.1753742968      7.68E-05 Normal BFGS step
   61    -435.1753743101      5.19E-05 Normal BFGS step
   62    -435.1753743189      5.61E-05 Normal BFGS step
   63    -435.1753743337      5.73E-05 Normal BFGS step
   64    -435.1753743722      5.41E-05 Normal BFGS step
   65    -435.1753744280      7.16E-05 Normal BFGS step
   66    -435.1753744971      7.64E-05 Normal BFGS step
   67    -435.1753745509      5.75E-05 Normal BFGS step
   68    -435.1753745628      1.02E-04 Normal BFGS step
   69    -435.1753745734      2.58E-05 Normal BFGS step
   70    -435.1753745788      7.19E-06 Normal BFGS step
   71    -435.1753745796      1.37E-05 Normal BFGS step
   72    -435.1753745805      1.45E-05 Normal BFGS step
   73    -435.1753745809      5.32E-06 Normal BFGS step
   74    -435.1753745810      6.24E-07 Normal BFGS step
   75    -435.1753745810      2.93E-07 Normal BFGS step
   76    -435.1753745810      1.38E-07 Normal BFGS step
   77    -435.1753745810      4.21E-08 Convergence criterion met
 ---------------------------------------
 <S^2> = 0.7530
 SCF time:  CPU 12.66 s  wall 17.20 s
 SCF   energy in the final basis set = -435.1753745810
 Total energy in the final basis set = -435.1753745810
================================================================================
|                                                                              |
|                                 A D C  M A N                                 |
|                                                                              |
 ------------------------------------------------------------------------------ 
|                                                                              |
| Components:                                                                  |
|                                                                              |
| - libvmm - 1.2-release                                                       |
|   Authors:                                                                   |
|   Evgeny Epifanovsky, Ilya Kaliman                                           |
|                                                                              |
| - libtensor - 2.4-trunk                                                      |
|   Authors:                                                                   |
|   Evgeny Epifanovsky, Michael Wormit, Dmitry Zuev, Sam Manzer                |
|                                                                              |
| - libwfa - 1.1-beta                                                          |
|   Authors:                                                                   |
|   Felix Plasser, Stefanie Baeppler, Benjamin Thomitzni, Michael Wormit       |
|                                                                              |
| - libadc - 1.0-beta                                                          |
|   Authors:                                                                   |
|   Michael Wormit, Philipp H. P. Harbach, Caroline Krauter, Dirk Rehn,        |
|   Matthias Schneider, Jan Wenzel                                             |
|                                                                              |
| - adcman - 2.4-beta                                                          |
|   Authors:                                                                   |
|   Michael Wormit, Philipp H. P. Harbach, Caroline Krauter, Dirk Rehn,        |
|   Jan Wenzel, Andreas Dreuw                                                  |
|                                                                              |
| Authors of earlier versions of ADCMAN:                                       |
| Andreas Dreuw, Jan Hendrik Starcke, Dirk Rehn, Michael Wormit                |
|                                                                              |
================================================================================

 
 Alpha MOs, Unrestricted
 -- Occupied --                  
-26.747 -26.744 -26.744 -26.616 -11.941  -2.191  -2.080  -2.076
  1 A     2 A     3 A     4 A     5 A     6 A     7 A     8 A                  
 -1.867  -1.327  -1.254  -1.253  -1.204  -1.078  -1.077  -1.050
  9 A    10 A    11 A    12 A    13 A    14 A    15 A    16 A                  
 -1.050  -1.032  -1.021  -0.928  -0.925
 17 A    18 A    19 A    20 A    21 A                                          
 -- Virtual --                   
 -0.175   0.034   0.221   0.224   0.361   0.432   0.439   0.454
 22 A    23 A    24 A    25 A    26 A    27 A    28 A    29 A                  
  0.952   1.010   1.011   1.012   1.092   1.115   1.191   1.224
 30 A    31 A    32 A    33 A    34 A    35 A    36 A    37 A                  
  1.275   1.280   1.286   1.298   1.304   1.309   1.378   1.501
 38 A    39 A    40 A    41 A    42 A    43 A    44 A    45 A                  
  1.645   1.646   1.751   1.753   1.786   1.802   1.817   1.843
 46 A    47 A    48 A    49 A    50 A    51 A    52 A    53 A                  
  1.855   1.870   1.978   1.989   1.992   2.008   2.082   2.097
 54 A    55 A    56 A    57 A    58 A    59 A    60 A    61 A                  
  2.291   2.495   2.721   2.727   3.060   3.068   3.279   3.282
 62 A    63 A    64 A    65 A    66 A    67 A    68 A    69 A                  
  3.309   3.658   4.312   4.948   4.976   5.295
 70 A    71 A    72 A    73 A    74 A    75 A                                  
 
 Beta MOs, Unrestricted
 -- Occupied --                  
-26.747 -26.744 -26.744 -26.568 -11.941  -2.191  -2.080  -2.076
  1 A     2 A     3 A     4 A     5 A     6 A     7 A     8 A                  
 -1.674  -1.327  -1.254  -1.253  -1.204  -1.078  -1.077  -1.050
  9 A    10 A    11 A    12 A    13 A    14 A    15 A    16 A                  
 -1.048  -1.021  -0.875  -0.873
 17 A    18 A    19 A    20 A                                                  
 -- Virtual --                   
 -0.175  -0.115   0.035   0.224   0.224   0.363   0.434   0.439
 21 A    22 A    23 A    24 A    25 A    26 A    27 A    28 A                  
  0.456   0.969   1.010   1.012   1.024   1.119   1.127   1.234
 29 A    30 A    31 A    32 A    33 A    34 A    35 A    36 A                  
  1.253   1.284   1.287   1.289   1.309   1.313   1.381   1.410
 37 A    38 A    39 A    40 A    41 A    42 A    43 A    44 A                  
  1.510   1.646   1.650   1.753   1.754   1.786   1.839   1.849
 45 A    46 A    47 A    48 A    49 A    50 A    51 A    52 A                  
  1.864   1.943   1.945   1.990   1.992   2.011   2.017   2.084
 53 A    54 A    55 A    56 A    57 A    58 A    59 A    60 A                  
  2.097   2.292   2.505   2.721   2.727   3.060   3.068   3.279
 61 A    62 A    63 A    64 A    65 A    66 A    67 A    68 A                  
  3.282   3.312   3.694   4.313   4.948   4.976   5.298
 69 A    70 A    71 A    72 A    73 A    74 A    75 A                          
 

--------------------------------------------------------------------------------
                                   HF Summary                                   
--------------------------------------------------------------------------------
  Energy:                                                 -435.1753745810 a.u.
  Dip. moment [a.u.]:                  [ -54.398535,  181.451492,    0.242506]
  Total dipole [Debye]:                                             481.484321
  <r^2> [a.u.]:                        [ 165.338844,  962.865501,   96.969526]
  Total <r^2> [a.u.]:                                              1225.173871
--------------------------------------------------------------------------------

--------------------------------------------------------------------------------
                                 MP(2) Summary                                  
--------------------------------------------------------------------------------
  Energy contribution:                                      -0.7352804805 a.u.
  Total energy:                                           -435.9106550614 a.u.
  Dip. moment [a.u.]:                  [ -54.378132,  181.506321,    0.221666]
  Total dipole [Debye]:                                             481.602864
  <r^2> [a.u.]:                        [ 165.104853,  963.555097,   96.778356]
  Total <r^2> [a.u.]:                                              1225.438306
--------------------------------------------------------------------------------
  Starting Davidson ... 
--------------------------------------------------------------------------------
   It NVec Conv  Avg. Norm  Max. Norm  Conv. states           Remark
--------------------------------------------------------------------------------
        20    0  2.107e-01  1.150e+00 10.9872 n n n n n n n n Guess.
    1   40    0  2.724e-02  2.511e-01 10.8279 n n n n n n n n 
    2   60    0  6.889e-03  5.743e-02 10.8265 n n n n n n n n 
    3   80    0  2.111e-03  2.243e-02 10.8265 n n n n n n n n 
    4  100    0  1.126e-03  1.380e-02 10.8265 n n n n n n n n 
    5   40    0  6.865e-04  1.059e-02 10.8265 n n n n n n n n Subspace collapsed.
    6   60    0  9.818e-04  1.797e-02 10.8265 n n n n n n n n 
    7   80    1  1.577e-03  2.470e-02 10.8265 y n n n n n n n 
    8  100    2  1.795e-03  3.513e-02 10.8265 y y n n n n n n 
    9   40    5  9.762e-04  1.916e-02 10.8265 y y n n n y y y Subspace collapsed.
   10   60    8  6.868e-04  1.340e-02 10.8265 y y n y y y y y 
   11   80   10  4.332e-04  8.402e-03 10.8265 y y y y y y y y 
   12  100   14  4.095e-04  7.955e-03 10.8265 y y y y y y y y 
   13   40   16  2.877e-04  5.600e-03 10.8265 y y y y y y y y Subspace collapsed.
   14   60   16  4.433e-04  8.686e-03 10.8265 y y y y y y y y 
   15   80   16  5.753e-04  1.121e-02 10.8265 y y y y y y y y 
   16   99   17  7.661e-04  1.371e-02 10.8265 y y y y y y y y 
   17  100   17  7.643e-04  1.366e-02 10.8265 y y y y y y y y 
   18   38   17  3.683e-04  6.620e-03 10.8265 y y y y y y y y Subspace collapsed.
   19   56   17  3.049e-04  5.388e-03 10.8265 y y y y y y y y 
   20   73   17  1.822e-04  3.168e-03 10.8265 y y y y y y y y 
   21   74   17  1.815e-04  3.158e-03 10.8265 y y y y y y y y 
   22   86   17  1.912e-04  3.267e-03 10.8265 y y y y y y y y 
   23   98   17  3.287e-04  4.832e-03 10.8265 y y y y y y y y 
   24  100   17  3.510e-04  5.000e-03 10.8265 y y y y y y y y 
   25   31   17  1.910e-04  2.865e-03 10.8265 y y y y y y y y Subspace collapsed.
   26   42   17  1.848e-04  2.803e-03 10.8265 y y y y y y y y 
   27   53   17  2.064e-04  3.122e-03 10.8265 y y y y y y y y 
   28   54   17  2.073e-04  3.134e-03 10.8265 y y y y y y y y 
   29   55   17  2.073e-04  3.135e-03 10.8265 y y y y y y y y 
   30   56   17  2.073e-04  3.132e-03 10.8265 y y y y y y y y 
   31   57   17  2.070e-04  3.128e-03 10.8265 y y y y y y y y 
   32   58   17  2.072e-04  3.129e-03 10.8265 y y y y y y y y 
   33   58   17  2.072e-04  3.129e-03 10.8265 y y y y y y y y 
   34   78   17  2.351e-04  3.437e-03 10.8265 y y y y y y y y 
   35   84   17  4.427e-04  7.332e-03 10.8265 y y y y y y y y 
   36   85   17  4.428e-04  7.334e-03 10.8265 y y y y y y y y 
   37   85   17  4.428e-04  7.334e-03 10.8265 y y y y y y y y 
   38   86   17  4.432e-04  7.342e-03 10.8265 y y y y y y y y 
   39   86   17  4.432e-04  7.342e-03 10.8265 y y y y y y y y 
   40   86   17  4.432e-04  7.342e-03 10.8265 y y y y y y y y 
   41  100   17  4.619e-04  7.735e-03 10.8265 y y y y y y y y 
   42   24   17  2.343e-04  3.932e-03 10.8265 y y y y y y y y Subspace collapsed.
   43   28   17  2.097e-04  3.606e-03 10.8265 y y y y y y y y 
   44   32   17  1.805e-04  3.138e-03 10.8265 y y y y y y y y 
   45   36   17  1.680e-04  2.998e-03 10.8265 y y y y y y y y 
   46   40   17  3.044e-04  5.641e-03 10.8265 y y y y y y y y 
   47   44   17  1.052e-03  2.081e-02 10.8265 y y y y y y y y 
   48   48   17  1.869e-03  3.728e-02 10.8265 y y y y y y y y 
   49   52   17  1.151e-03  2.296e-02 10.8265 y y y y y y y y 
   50   56   17  6.437e-04  1.283e-02 10.8265 y y y y y y y y 
   51   60   17  9.064e-04  1.810e-02 10.8265 y y y y y y y y 
   52   64   17  6.809e-04  1.360e-02 10.8265 y y y y y y y y 
   53   68   17  4.835e-04  9.653e-03 10.8265 y y y y y y y y 
   54   68   17  4.835e-04  9.653e-03 10.8265 y y y y y y y y 
   55   68   17  4.835e-04  9.653e-03 10.8265 y y y y y y y y 
   56   88   17  3.497e-04  6.982e-03 10.8265 y y y y y y y y 
   57   92   17  1.969e-04  3.933e-03 10.8265 y y y y y y y y 
   58   92   17  1.969e-04  3.933e-03 10.8265 y y y y y y y y 
   59   92   17  1.969e-04  3.933e-03 10.8265 y y y y y y y y 
--------------------------------------------------------------------------------
  Davidson Summary: 
 ------------------------------------------------------------
  State  0: excitation energy =  10.8265 a.u.   (converged)
  State  1: excitation energy =  10.8971 a.u.   (converged)
  State  2: excitation energy =  11.1652 a.u.   (converged)
  State  3: excitation energy =  11.1939 a.u.   (converged)
  State  4: excitation energy =  11.2184 a.u.   (converged)
  State  5: excitation energy =  11.2616 a.u.   (converged)
  State  6: excitation energy =  11.2684 a.u.   (converged)
  State  7: excitation energy =  11.3426 a.u.   (converged)
  State  8: excitation energy =  11.3492 a.u.   (converged)
  State  9: excitation energy =  11.5177 a.u.   (converged)
  State 10: excitation energy =  11.5671 a.u.   (converged)
  State 11: excitation energy =  11.5705 a.u.   (converged)
  State 12: excitation energy =  11.5708 a.u.   (converged)
  State 13: excitation energy =  11.5792 a.u.   (converged)
  State 14: excitation energy =  11.5846 a.u.   (converged)
  State 15: excitation energy =  11.5860 a.u.   (converged)
  State 16: excitation energy =  11.6218 a.u.   (converged)
  State 17: excitation energy =  12.2160 a.u.   (not converged)
  State 18: excitation energy =  12.2186 a.u.   (not converged)
  State 19: excitation energy =  12.2228 a.u.   (not converged)
 ------------------------------------------------------------


--------------------------------------------------------------------------------
                             Excited State Summary
--------------------------------------------------------------------------------

  Excited state  1 (A)                                             [converged]
  ----------------------------------------------------------------------------
  Term symbol:  2 (-) A                                     R^2 =  4.52838e-14

  Total energy:                                           -425.0842009108 a.u.
  Excitation energy:                                             294.602800 eV

  Osc. strength:                                                      0.000000
  Trans. dip. moment [a.u.]:           [  -0.000009,   -0.000024,    0.000009]
  <i|r^2|0> [a.u.]:                    [   0.000018,   -0.000263,   -0.000006]

  V1^2 = 0.9589, V2^2 = 0.0411

  Important amplitudes:
     core i     occ j      vir a      vir b          v   
    ------------------------------------------------------
     5 (A) B              21 (A) B                -0.6520
     5 (A) A              22 (A) A                 0.6518
    ------------------------------------------------------
  ----------------------------------------------------------------------------


  Excited state  2 (A)                                             [converged]
  ----------------------------------------------------------------------------
  Term symbol:  3 (-) A                                     R^2 =  8.18574e-14

  Total energy:                                           -425.0135290043 a.u.
  Excitation energy:                                             296.525881 eV

  Osc. strength:                                                      0.109621
  Trans. dip. moment [a.u.]:           [  -0.042402,   -0.109018,    0.037506]
  <i|r^2|0> [a.u.]:                    [   0.077726,   -1.195093,   -0.032142]

  V1^2 = 0.9544, V2^2 = 0.0456

  Important amplitudes:
     core i     occ j      vir a      vir b          v   
    ------------------------------------------------------
     5 (A) A              22 (A) A                -0.6638
     5 (A) B              21 (A) B                -0.6636
    ------------------------------------------------------
  ----------------------------------------------------------------------------


  Excited state  3 (A)                                             [converged]
  ----------------------------------------------------------------------------
  Term symbol:  4 (-) A                                     R^2 =  3.86037e-13

  Total energy:                                           -424.7454999212 a.u.
  Excitation energy:                                             303.819323 eV

  Osc. strength:                                                      0.000000
  Trans. dip. moment [a.u.]:           [  -0.000002,   -0.000015,    0.000013]
  <i|r^2|0> [a.u.]:                    [   0.000071,   -0.000021,    0.000054]

  V1^2 = 0.9299, V2^2 = 0.0701

  Important amplitudes:
     core i     occ j      vir a      vir b          v   
    ------------------------------------------------------
     5 (A) A              23 (A) A                 0.6171
     5 (A) B              23 (A) B                -0.6097
    ------------------------------------------------------
  ----------------------------------------------------------------------------


  Excited state  4 (A)                                             [converged]
  ----------------------------------------------------------------------------
  Term symbol:  5 (-) A                                     R^2 =  2.58465e-14

  Total energy:                                           -424.7167854767 a.u.
  Excitation energy:                                             304.600683 eV

  Osc. strength:                                                      0.000005
  Trans. dip. moment [a.u.]:           [   0.000688,   -0.000383,   -0.000294]
  <i|r^2|0> [a.u.]:                    [  -0.001342,   -0.004204,    0.000285]

  V1^2 = 0.8564, V2^2 = 0.1436

  Important amplitudes:
     core i     occ j      vir a      vir b          v   
    ------------------------------------------------------
     5 (A) B              22 (A) B                 0.9238
     5 (A) B   13 (A) A   22 (A) A   22 (A) B     -0.0718
    ------------------------------------------------------
  ----------------------------------------------------------------------------


  Excited state  5 (A)                                             [converged]
  ----------------------------------------------------------------------------
  Term symbol:  6 (-) A                                     R^2 =  1.09992e-13

  Total energy:                                           -424.6922748736 a.u.
  Excitation energy:                                             305.267650 eV

  Osc. strength:                                                      0.004158
  Trans. dip. moment [a.u.]:           [  -0.007080,   -0.020573,    0.009091]
  <i|r^2|0> [a.u.]:                    [   0.027702,   -0.198991,    0.006684]

  V1^2 = 0.9198, V2^2 = 0.0802

  Important amplitudes:
     core i     occ j      vir a      vir b          v   
    ------------------------------------------------------
     5 (A) B              23 (A) B                 0.6506
     5 (A) A              23 (A) A                 0.6436
    ------------------------------------------------------
  ----------------------------------------------------------------------------


  Excited state  6 (A)                                             [converged]
  ----------------------------------------------------------------------------
  Term symbol:  7 (-) A                                     R^2 =  4.45639e-14

  Total energy:                                           -424.6490305340 a.u.
  Excitation energy:                                             306.444388 eV

  Osc. strength:                                                      0.000000
  Trans. dip. moment [a.u.]:           [  -0.000069,    0.000037,    0.000029]
  <i|r^2|0> [a.u.]:                    [   0.000135,    0.000409,   -0.000028]

  V1^2 = 0.9541, V2^2 = 0.0459

  Important amplitudes:
     core i     occ j      vir a      vir b          v   
    ------------------------------------------------------
     5 (A) A              27 (A) A                -0.5466
     5 (A) B              27 (A) B                 0.5423
    ------------------------------------------------------
  ----------------------------------------------------------------------------


  Excited state  7 (A)                                             [converged]
  ----------------------------------------------------------------------------
  Term symbol:  8 (-) A                                     R^2 =  4.98359e-14

  Total energy:                                           -424.6422137203 a.u.
  Excitation energy:                                             306.629883 eV

  Osc. strength:                                                      0.000000
  Trans. dip. moment [a.u.]:           [  -0.000010,   -0.000012,   -0.000012]
  <i|r^2|0> [a.u.]:                    [   0.000023,   -0.000126,    0.000013]

  V1^2 = 0.9540, V2^2 = 0.0460

  Important amplitudes:
     core i     occ j      vir a      vir b          v   
    ------------------------------------------------------
     5 (A) B              28 (A) B                -0.5437
     5 (A) A              28 (A) A                 0.5417
    ------------------------------------------------------
  ----------------------------------------------------------------------------


  Excited state  8 (A)                                             [converged]
  ----------------------------------------------------------------------------
  Term symbol:  9 (-) A                                     R^2 =  3.85314e-14

  Total energy:                                           -424.5680198170 a.u.
  Excitation energy:                                             308.648802 eV

  Osc. strength:                                                      0.118897
  Trans. dip. moment [a.u.]:           [   0.102451,   -0.055708,   -0.046086]
  <i|r^2|0> [a.u.]:                    [  -0.199535,   -0.608572,    0.042111]

  V1^2 = 0.9445, V2^2 = 0.0555

  Important amplitudes:
     core i     occ j      vir a      vir b          v   
    ------------------------------------------------------
     5 (A) A              27 (A) A                 0.4926
     5 (A) B              27 (A) B                 0.4903
    ------------------------------------------------------
  ----------------------------------------------------------------------------


  Excited state  9 (A)                                             [converged]
  ----------------------------------------------------------------------------
  Term symbol:  10 (-) A                                    R^2 =  4.05741e-14

  Total energy:                                           -424.5614849019 a.u.
  Excitation energy:                                             308.826626 eV

  Osc. strength:                                                      0.117860
  Trans. dip. moment [a.u.]:           [  -0.057740,   -0.015559,   -0.109551]
  <i|r^2|0> [a.u.]:                    [   0.112545,   -0.168655,    0.081955]

  V1^2 = 0.9441, V2^2 = 0.0559

  Important amplitudes:
     core i     occ j      vir a      vir b          v   
    ------------------------------------------------------
     5 (A) B              28 (A) B                -0.4902
     5 (A) A              28 (A) A                -0.4888
    ------------------------------------------------------
  ----------------------------------------------------------------------------


  Excited state 10 (A)                                             [converged]
  ----------------------------------------------------------------------------
  Term symbol:  11 (-) A                                    R^2 =  3.25197e-14

  Total energy:                                           -424.3929568322 a.u.
  Excitation energy:                                             313.412508 eV

  Osc. strength:                                                      0.000000
  Trans. dip. moment [a.u.]:           [  -0.000007,   -0.000024,    0.000008]
  <i|r^2|0> [a.u.]:                    [   0.000012,   -0.000262,   -0.000008]

  V1^2 = 0.9199, V2^2 = 0.0801

  Important amplitudes:
     core i     occ j      vir a      vir b          v   
    ------------------------------------------------------
     5 (A) B              26 (A) B                 0.4757
     5 (A) A              26 (A) A                -0.4643
    ------------------------------------------------------
  ----------------------------------------------------------------------------


  Excited state 11 (A)                                             [converged]
  ----------------------------------------------------------------------------
  Term symbol:  12 (-) A                                    R^2 =  1.17226e-13

  Total energy:                                           -424.3435673126 a.u.
  Excitation energy:                                             314.756465 eV

  Osc. strength:                                                      0.030346
  Trans. dip. moment [a.u.]:           [  -0.023447,   -0.055930,    0.016041]
  <i|r^2|0> [a.u.]:                    [   0.030330,   -0.626971,   -0.026827]

  V1^2 = 0.9160, V2^2 = 0.0840

  Important amplitudes:
     core i     occ j      vir a      vir b          v   
    ------------------------------------------------------
     5 (A) A              26 (A) A                 0.6645
     5 (A) B              26 (A) B                 0.5673
    ------------------------------------------------------
  ----------------------------------------------------------------------------


  Excited state 12 (A)                                             [converged]
  ----------------------------------------------------------------------------
  Term symbol:  13 (-) A                                    R^2 =  2.75382e-14

  Total energy:                                           -424.3401664684 a.u.
  Excitation energy:                                             314.849007 eV

  Osc. strength:                                                      0.000291
  Trans. dip. moment [a.u.]:           [   0.004431,   -0.003863,   -0.001767]
  <i|r^2|0> [a.u.]:                    [  -0.008989,   -0.042622,    0.001168]

  V1^2 = 0.8969, V2^2 = 0.1031

  Important amplitudes:
     core i     occ j      vir a      vir b          v   
    ------------------------------------------------------
     5 (A) A              24 (A) A                -0.5629
     5 (A) B              25 (A) B                 0.4757
    ------------------------------------------------------
  ----------------------------------------------------------------------------


  Excited state 13 (A)                                             [converged]
  ----------------------------------------------------------------------------
  Term symbol:  14 (-) A                                    R^2 =  6.64079e-14

  Total energy:                                           -424.3399037792 a.u.
  Excitation energy:                                             314.856155 eV

  Osc. strength:                                                      0.000254
  Trans. dip. moment [a.u.]:           [   0.002831,    0.004618,   -0.001894]
  <i|r^2|0> [a.u.]:                    [  -0.003669,    0.052392,    0.003242]

  V1^2 = 0.8987, V2^2 = 0.1013

  Important amplitudes:
     core i     occ j      vir a      vir b          v   
    ------------------------------------------------------
     5 (A) B              24 (A) B                 0.4953
     5 (A) A              25 (A) A                 0.4866
    ------------------------------------------------------
  ----------------------------------------------------------------------------


  Excited state 14 (A)                                             [converged]
  ----------------------------------------------------------------------------
  Term symbol:  15 (-) A                                    R^2 =  1.65283e-13

  Total energy:                                           -424.3314359780 a.u.
  Excitation energy:                                             315.086576 eV

  Osc. strength:                                                      0.000101
  Trans. dip. moment [a.u.]:           [  -0.001853,   -0.003076,    0.000403]
  <i|r^2|0> [a.u.]:                    [   0.001213,   -0.036179,   -0.002651]

  V1^2 = 0.9063, V2^2 = 0.0937

  Important amplitudes:
     core i     occ j      vir a      vir b          v   
    ------------------------------------------------------
     5 (A) B              26 (A) B                 0.4466
     5 (A) A              29 (A) A                -0.4377
    ------------------------------------------------------
  ----------------------------------------------------------------------------


  Excited state 15 (A)                                             [converged]
  ----------------------------------------------------------------------------
  Term symbol:  16 (-) A                                    R^2 =  1.83862e-13

  Total energy:                                           -424.3261035104 a.u.
  Excitation energy:                                             315.231680 eV

  Osc. strength:                                                      0.028880
  Trans. dip. moment [a.u.]:           [  -0.049962,    0.027240,    0.022388]
  <i|r^2|0> [a.u.]:                    [   0.096673,    0.297340,   -0.019261]

  V1^2 = 0.9007, V2^2 = 0.0993

  Important amplitudes:
     core i     occ j      vir a      vir b          v   
    ------------------------------------------------------
     5 (A) B              27 (A) B                -0.5146
     5 (A) B              25 (A) B                 0.4999
    ------------------------------------------------------
  ----------------------------------------------------------------------------


  Excited state 16 (A)                                             [converged]
  ----------------------------------------------------------------------------
  Term symbol:  17 (-) A                                    R^2 =  4.58104e-13

  Total energy:                                           -424.3246123386 a.u.
  Excitation energy:                                             315.272256 eV

  Osc. strength:                                                      0.030067
  Trans. dip. moment [a.u.]:           [   0.028046,    0.005947,    0.055414]
  <i|r^2|0> [a.u.]:                    [  -0.056645,    0.061763,   -0.044485]

  V1^2 = 0.9015, V2^2 = 0.0985

  Important amplitudes:
     core i     occ j      vir a      vir b          v   
    ------------------------------------------------------
     5 (A) A              25 (A) A                -0.4684
     5 (A) B              28 (A) B                 0.4663
    ------------------------------------------------------
  ----------------------------------------------------------------------------


  Excited state 17 (A)                                             [converged]
  ----------------------------------------------------------------------------
  Term symbol:  18 (-) A                                    R^2 =  1.31535e-12

  Total energy:                                           -424.2888352241 a.u.
  Excitation energy:                                             316.245801 eV

  Osc. strength:                                                      0.009580
  Trans. dip. moment [a.u.]:           [   0.010743,    0.030850,   -0.013015]
  <i|r^2|0> [a.u.]:                    [  -0.041503,    0.314395,   -0.010787]

  V1^2 = 0.9125, V2^2 = 0.0875

  Important amplitudes:
     core i     occ j      vir a      vir b          v   
    ------------------------------------------------------
     5 (A) B              29 (A) B                -0.6305
     5 (A) A              29 (A) A                -0.5739
    ------------------------------------------------------
  ----------------------------------------------------------------------------


  Excited state 18 (A)                                         [not converged]
  ----------------------------------------------------------------------------
  Term symbol:  19 (-) A                                    R^2 =  2.11288e-04

  Total energy:                                           -423.6946741573 a.u.
  Excitation energy:                                             332.413746 eV


  V1^2 = 0.8739, V2^2 = 0.1261

  Important amplitudes:
     core i     occ j      vir a      vir b          v   
    ------------------------------------------------------
     5 (A) B              31 (A) B                 0.6404
     5 (A) A              31 (A) A                -0.5372
    ------------------------------------------------------
  ----------------------------------------------------------------------------


  Excited state 19 (A)                                         [not converged]
  ----------------------------------------------------------------------------
  Term symbol:  20 (-) A                                    R^2 =  1.95000e-05

  Total energy:                                           -423.6920637338 a.u.
  Excitation energy:                                             332.484779 eV


  V1^2 = 0.8733, V2^2 = 0.1267

  Important amplitudes:
     core i     occ j      vir a      vir b          v   
    ------------------------------------------------------
     5 (A) A              33 (A) A                -0.6589
     5 (A) B              32 (A) B                -0.6487
    ------------------------------------------------------
  ----------------------------------------------------------------------------


  Excited state 20 (A)                                         [not converged]
  ----------------------------------------------------------------------------
  Term symbol:  21 (-) A                                    R^2 =  3.93295e-03

  Total energy:                                           -423.6878999804 a.u.
  Excitation energy:                                             332.598081 eV


  V1^2 = 0.8718, V2^2 = 0.1282

  Important amplitudes:
     core i     occ j      vir a      vir b          v   
    ------------------------------------------------------
     5 (A) A              31 (A) A                 0.5944
     5 (A) B              31 (A) B                 0.5844
    ------------------------------------------------------
  ----------------------------------------------------------------------------


--------------------------------------------------------------------------------
  Time of ADC calculation:  CPU 1279.95 s  wall 1337.70 s
================================================================================
 
 --------------------------------------------------------------
 
                    Orbital Energies (a.u.)
 --------------------------------------------------------------
 
 Alpha MOs
 -- Occupied --
-26.747 -26.744 -26.744 -26.616 -11.941  -2.191  -2.080  -2.076
 -1.867  -1.327  -1.254  -1.253  -1.204  -1.078  -1.077  -1.050
 -1.050  -1.032  -1.021  -0.928  -0.925
 -- Virtual --
 -0.175   0.034   0.221   0.224   0.361   0.432   0.439   0.454
  0.952   1.010   1.011   1.012   1.092   1.115   1.191   1.224
  1.275   1.280   1.286   1.298   1.304   1.309   1.378   1.501
  1.645   1.646   1.751   1.753   1.786   1.802   1.817   1.843
  1.855   1.870   1.978   1.989   1.992   2.008   2.082   2.097
  2.291   2.495   2.721   2.727   3.060   3.068   3.279   3.282
  3.309   3.658   4.312   4.948   4.976   5.295
 
 Beta MOs
 -- Occupied --
-26.747 -26.744 -26.744 -26.568 -11.941  -2.191  -2.080  -2.076
 -1.674  -1.327  -1.254  -1.253  -1.204  -1.078  -1.077  -1.050
 -1.048  -1.021  -0.875  -0.873
 -- Virtual --
 -0.175  -0.115   0.035   0.224   0.224   0.363   0.434   0.439
  0.456   0.969   1.010   1.012   1.024   1.119   1.127   1.234
  1.253   1.284   1.287   1.289   1.309   1.313   1.381   1.410
  1.510   1.646   1.650   1.753   1.754   1.786   1.839   1.849
  1.864   1.943   1.945   1.990   1.992   2.011   2.017   2.084
  2.097   2.292   2.505   2.721   2.727   3.060   3.068   3.279
  3.282   3.312   3.694   4.313   4.948   4.976   5.298
 --------------------------------------------------------------
 
          Ground-State Mulliken Net Atomic Charges

     Atom                 Charge (a.u.)    Spin (a.u.)
  --------------------------------------------------------
      1 C                     1.182384      -0.005196
      2 F                    -0.073374       0.000230
      3 F                    -0.073234       0.000223
      4 F                     0.026855       1.004651
      5 F                    -0.062632       0.000092
  --------------------------------------------------------
  Sum of atomic charges =     1.000000
  Sum of spin   charges =     1.000000

 -----------------------------------------------------------------
                    Cartesian Multipole Moments
 -----------------------------------------------------------------
    Charge (ESU x 10^10)
                 4.8032
    Dipole Moment (Debye)
         X      -2.5128      Y      13.6255      Z      -0.9337
       Tot      13.8867
    Quadrupole Moments (Debye-Ang)
        XX     -18.9639     XY      -6.8638     YY      19.2665
        XZ       0.0474     YZ      -3.0875     ZZ     -20.5311
    Octopole Moments (Debye-Ang^2)
       XXX      41.4693    XXY     -45.0989    XYY      -4.6726
       YYY     -28.2312    XXZ       1.1509    XYZ       0.6672
       YYZ      -9.4968    XZZ      13.3032    YZZ     -47.9910
       ZZZ      -0.2510
    Hexadecapole Moments (Debye-Ang^3)
      XXXX    -129.6533   XXXY      88.0645   XXYY    -151.4359
      XYYY      35.8994   YYYY    -470.4340   XXXZ       1.8736
      XXYZ       6.0396   XYYZ       3.6935   YYYZ     -14.8916
      XXZZ     -32.8738   XYZZ      27.3850   YYZZ    -147.0966
      XZZZ       5.1206   YZZZ      13.7662   ZZZZ     -76.0021
 -----------------------------------------------------------------
Archival summary:
1\1\tp-linux1\SP\HF\6-31G*\41(1+,2)\thomas\WedMar2211:52:472017WedMar2211:52:472017\0\\#,HF,6-31G*,\\1,2\C\F,1,1.18988\F,1,1.19628,2,119.84\F,1,1.1963,2,119.838,3,-169.057,0\F,1,2.64107,2,89.1854,3,-84.6273,0\\HF=-435.175375\\@

 Total job time:  1356.95s(wall), 1294.42s(cpu) 
 Wed Mar 22 11:52:47 2017

        *************************************************************
        *                                                           *
        *  Thank you very much for using Q-Chem.  Have a nice day.  *
        *                                                           *
        *************************************************************


0 sent ACK to 0 
now end server 0 ... 
cleanup process ... done
