
Running Job 1 of 1 ddtraj1t43.inp
qchem ddtraj1t43.inp_14093.0 /scratch/qchem/qchem14093/ 1
/mnt/software/qchem/bin/mpi/mpirun_qchem -machinefile /mnt/software/qchem/bin/mpi/machines -np 1 /mnt/software/qchem/exe/qcprog.exe ddtraj1t43.inp_14093.0 /scratch/qchem/qchem14093/

Process 0 of 1 is on tp-linux1 - thread support 0
initial socket setup ...start
initial socket setup ...done 
now start server 0 ... 

cmd = ssh tp-linux1 /mnt/software/qchem/bin/get_hostid 2003253067 > /scratch/qchem/qchem14093/lic.dat
                  Welcome to Q-Chem
     A Quantum Leap Into The Future Of Chemistry


 Q-Chem 4.3, Q-Chem, Inc., Pleasanton, CA (2015)

 Y. Shao,  Z. Gan,  E. Epifanovsky,  A. T. B. Gilbert,  M. Wormit,  
 J. Kussmann,  A. W. Lange,  A. Behn,  J. Deng,  X. Feng,  D. Ghosh,  
 M. Goldey,  P. R. Horn,  L. D. Jacobson,  I. Kaliman,  R. Z. Khaliullin,  
 T. Kus,  A. Landau,  J. Liu,  E. I. Proynov,  Y. M. Rhee,  R. M. Richard,  
 M. A. Rohrdanz,  R. P. Steele,  E. J. Sundstrom,  H. L. Woodcock III,  
 P. M. Zimmerman,  D. Zuev,  B. Albrecht,  E. Alguire,  B. Austin,  
 S. A. Baeppler,  G. J. O. Beran,  Y. A. Bernard,  E. Berquist,  
 K. Brandhorst,  K. B. Bravaya,  S. T. Brown,  D. Casanova,  C.-M. Chang,  
 Y. Chen,  S. H. Chien,  K. D. Closser,  D. L. Crittenden,  M. Diedenhofen,  
 R. A. DiStasio Jr.,  H. Do,  A. D. Dutoi,  R. G. Edgar,  P.-T. Fang,  
 S. Fatehi,  Q. Feng,  L. Fusti-Molnar,  A. Ghysels,  
 A. Golubeva-Zadorozhnaya,  J. Gomes,  A. Gunina,  M. W. D. Hanson-Heine,  
 P. H. P. Harbach,  A. W. Hauser,  E. G. Hohenstein,  Z. C. Holden,  K. Hui,  
 T.-C. Jagau,  H. Ji,  B. Kaduk,  K. Khistyaev,  Jaehoon Kim,  Jihan Kim,  
 R. A. King,  P. Klunzinger,  D. Kosenkov,  T. Kowalczyk,  C. M. Krauter,  
 K. U. Lao,  A. Laurent,  K. V. Lawler,  S. Lehtola,  S. V. Levchenko,  
 C. Y. Lin,  Y.-S. Lin,  F. Liu,  E. Livshits,  R. C. Lochan,  A. Luenser,  
 P. Manohar,  S. F. Manzer,  S.-P. Mao,  N. Mardirossian,  A. V. Marenich,  
 L. A. Martinez-Martinez,  S. A. Maurer,  N. J. Mayhall,  K. Nanda,  
 C. M. Oana,  R. Olivares-Amaya,  D. P. O'Neill,  J. A. Parkhill,  
 T. M. Perrine,  R. Peverati,  P. A. Pieniazek,  F. Plasser,  A. Prociuk,  
 D. R. Rehn,  E. Rosta,  N. J. Russ,  N. Sergueev,  S. M. Sharada,  
 S. Sharma,  D. W. Small,  A. Sodt,  T. Stauch,  T. Stein,  D. Stuck,  
 Y.-C. Su,  A. J. W. Thom,  T. Tsuchimochi,  L. Vogt,  O. Vydrov,  T. Wang,  
 M. A. Watson,  J. Wenzel,  A. White,  C. F. Williams,  V. Vanovschi,  
 S. Yeganeh,  S. R. Yost,  Z.-Q. You,  I. Y. Zhang,  X. Zhang,  Y. Zhao,  
 B. R. Brooks,  G. K. L. Chan,  D. M. Chipman,  C. J. Cramer,  
 W. A. Goddard III,  M. S. Gordon,  W. J. Hehre,  A. Klamt,  
 H. F. Schaefer III,  M. W. Schmidt,  C. D. Sherrill,  D. G. Truhlar,  
 A. Warshel,  X. Xu,  A. Aspuru-Guzik,  R. Baer,  A. T. Bell,  N. A. Besley,  
 J.-D. Chai,  A. Dreuw,  B. D. Dunietz,  T. R. Furlani,  S. R. Gwaltney,  
 C.-P. Hsu,  Y. Jung,  J. Kong,  D. S. Lambrecht,  W. Liang,  C. Ochsenfeld,  
 V. A. Rassolov,  L. V. Slipchenko,  J. E. Subotnik,  T. Van Voorhis,  
 J. M. Herbert,  A. I. Krylov,  P. M. W. Gill,  M. Head-Gordon

 Contributors to earlier versions of Q-Chem not listed above: 
 R. D. Adamson,  J. Baker,  E. F. C. Byrd,  A. K. Chakraborty,  C.-L. Cheng,  
 H. Dachsel,  R. J. Doerksen,  G. Hawkins,  A. Heyden,  S. Hirata,  
 G. Kedziora,  F. J. Keil,  C. Kelley,  P. P. Korambath,  W. Kurlancheek,  
 A. M. Lee,  M. S. Lee,  D. Liotard,  I. Lotan,  P. E. Maslen,  N. Nair,  
 D. Neuhauser,  R. Olson,  B. Peters,  J. Ritchie,  N. E. Schultz,  
 N. Shenvi,  A. C. Simmonett,  K. S. Thanthiriwatte,  Q. Wu,  W. Zhang

 Please cite Q-Chem as follows:
 Y. Shao et al., Mol. Phys. 113, 184-215 (2015)
 DOI: 10.1080/00268976.2014.952696

 Q-Chem 4.3.0 for Intel X86 Linux

 Parts of Q-Chem use Armadillo 5.200.1 (Boston Tea Smuggler).
 http://arma.sourceforge.net/

 Q-Chem begins on Wed Mar 22 17:54:15 2017  

Host: 
0

     Scratch files written to /scratch/qchem/qchem14093//
 Nov1815 1189b_ 19540  19532 5443   
 Parallel job on  1  processors
Processing $rem in /mnt/software/qchem/config/preferences.
 MEM_TOTAL  2000 

Checking the input file for inconsistencies... 	...done.

--------------------------------------------------------------
User input:
--------------------------------------------------------------
$comment
XAS calculation for valence excited states for CF4+ using cvs-adc(2) + 6-31G* basis set
job 1 - determination of HF orbitals
$end

$molecule
1 2
6  -0.54716  2.780847  -0.179106
9  0.687473  2.606797  -0.108165
9  -1.04059  3.548784  0.673341
9  -1.52256  0.098285  0.877308
9  -1.017795  2.87248  -1.329354
$end

$comment
cvs-adc(2) calculation
$end

$rem
mem_total 3000
mem_static 1500
sym_ignore true
method cvs-adc(2)
basis 6-31G*
ee_singlets 20
cc_rest_occ 5                  !only excitations from the lowest N orbitals
unrestricted  true
max_scf_cycles 200
SCF_ALGORITHM = DIIS_GDM
SCF_CONVERGENCE = 7
THRESH = 10
$end
--------------------------------------------------------------
 ----------------------------------------------------------------
             Standard Nuclear Orientation (Angstroms)
    I     Atom           X                Y                Z
 ----------------------------------------------------------------
    1      C      -0.5471600000     2.7808470000    -0.1791060000
    2      F       0.6874730000     2.6067970000    -0.1081650000
    3      F      -1.0405900000     3.5487840000     0.6733410000
    4      F      -1.5225600000     0.0982850000     0.8773080000
    5      F      -1.0177950000     2.8724800000    -1.3293540000
 ----------------------------------------------------------------
 Nuclear Repulsion Energy =   175.4234283626 hartrees
 There are       21 alpha and       20 beta electrons
 Requested basis set is 6-31G(d)
 There are 20 shells and 75 basis functions

 Total QAlloc Memory Limit   3000 MB
 Mega-Array Size      1467 MB
 MEM_STATIC part      1500 MB

                       Distance Matrix (Angstroms)
             C (  1)   F (  2)   F (  3)   F (  4)
   F (  2)  1.248857
   F (  3)  1.248946  2.117615
   F (  4)  3.043609  3.485403  3.489963
   F (  5)  1.246180  2.114197  2.113929  3.580545
 
 tim1(1): 
  0.000000000000000E+000
 tim1(2): 
  0.000000000000000E+000
 A cutoff of  1.0D-10 yielded    186 shell pairs
 There are      2860 function pairs
 
 -------------------------------------------------------
 OpenMP Integral Computing Module                       
 Release: version 1.0, May 2013, Q-Chem Inc. Pittsburgh 
 -------------------------------------------------------
 Integral Job Info:
 Integral job number is                      11
 Integral operator is                         1
 short-range coefficients                     0
 long-range coefficients              100000000
 Omega coefficients                           0
 if combine SR and LR in K                    0
 Integral screening is                        0
 Integral computing path is                   2
 max size of driver memory is            800000
 size of driver memory is                593474
 size of scratch memory is              2260544
 max col of scratch BK array               1296
 max len of scratch array in speh3          155
 max len of scratch index in speh4           18
 max int batch size is                      520
 min int batch size is                       52
 fixed nKL is                                52
 max L of basis functions is                  2
 order of int derivative is                   0
 number of shells is                         20
 number of basis is                          75
 number of cartesian basis is                75
 number of contracted shell pairs           186
 number of primitive shell pairs            933
 maxK2 (contraction) of shell pair           36
 max number of K2 of shell pair               1
 max number of CS2 of shell pair             32
 max number of PS2 of shell pair            192
 mem total for path MDJ                   17476
 -------------------------------------------------------
 Smallest overlap matrix eigenvalue = 3.65E-03

 Scale SEOQF with 1.000000e-01/1.000000e-01/1.000000e+00

 Standard Electronic Orientation quadrupole field applied
 Nucleus-field energy     =    -0.0000000064 hartrees
 Guess from superposition of atomic densities
 Warning:  Energy on first SCF cycle will be non-variational
 An unrestricted Hartree-Fock SCF calculation will be
 performed using Pulay DIIS + Geometric Direct Minimization
 SCF converges when RMS gradient is below 1.0E-07
 ---------------------------------------
  Cycle       Energy         DIIS Error
 ---------------------------------------
    1    -436.1755077558      8.63E-02
    2    -434.9445057350      1.81E-02
    3    -435.1040954103      9.15E-03 Done DIIS. Switching to GDM
    4    -435.1426496131      9.54E-03 Normal BFGS step
    5    -435.1438478701      1.01E-02 Normal BFGS step
    6    -435.1442945409      2.13E-03 Normal BFGS step
    7    -435.1443270352      2.11E-03 Normal BFGS step
    8    -435.1443362938      2.09E-03 Normal BFGS step
    9    -435.1443486441      2.03E-03 Normal BFGS step
   10    -435.1443744347      1.88E-03 Normal BFGS step
   11    -435.1444239255      2.11E-03 Normal BFGS step
   12    -435.1444981904      2.44E-03 Normal BFGS step
   13    -435.1445601361      1.64E-03 Normal BFGS step
   14    -435.1445834269      4.98E-04 Normal BFGS step
   15    -435.1445859704      1.09E-04 Normal BFGS step
   16    -435.1445861222      3.60E-05 Normal BFGS step
   17    -435.1445861361      1.49E-05 Normal BFGS step
   18    -435.1445861384      9.18E-06 Normal BFGS step
   19    -435.1445861388      8.14E-06 Normal BFGS step
   20    -435.1445861391      8.14E-06 Normal BFGS step
   21    -435.1445861393      8.14E-06 Normal BFGS step
   22    -435.1445861397      8.14E-06 Normal BFGS step
   23    -435.1445861402      9.36E-06 Normal BFGS step
   24    -435.1445861416      1.77E-05 Normal BFGS step
   25    -435.1445861448      3.03E-05 Normal BFGS step
   26    -435.1445861532      5.07E-05 Normal BFGS step
   27    -435.1445861749      8.34E-05 Normal BFGS step
   28    -435.1445862312      1.36E-04 Normal BFGS step
   29    -435.1445863612      2.18E-04 Normal BFGS step
   30    -435.1445865303      3.51E-04 Normal BFGS step
   31    -435.1445869118      3.57E-04 Normal BFGS step
   32    -435.1445880195      1.32E-04 Normal BFGS step
   33    -435.1445871653      1.91E-03 Line search: overstep
   34    -435.1445880887      1.99E-04 Normal BFGS step
   35    -435.1445884517      3.82E-04 Normal BFGS step
   36    -435.1445890706      4.64E-04 Normal BFGS step
   37    -435.1445898890      9.71E-05 Normal BFGS step
   38    -435.1445856812      3.71E-03 Line search: overstep
   39    -435.1445901254      1.93E-04 Dog-leg BFGS step
   40    -435.1445900616      1.76E-03 Line search: overstep
   41    -435.1445905389      4.20E-04 Dog-leg BFGS step
   42    -435.1445909902      3.83E-04 Dog-leg BFGS step
   43    -435.1445915377      1.13E-04 Dog-leg BFGS step
   44    -435.1445918913      2.15E-04 Dog-leg BFGS step
   45    -435.1445923490      1.42E-04 Dog-leg BFGS step
   46    -435.1445927088      2.16E-04 Dog-leg BFGS step
   47    -435.1445931545      9.34E-05 Dog-leg BFGS step
   48    -435.1445934860      2.08E-04 Dog-leg BFGS step
   49    -435.1445941068      3.56E-04 Dog-leg BFGS step
   50    -435.1445948481      3.06E-04 Normal BFGS step
   51    -435.1445953735      1.92E-04 Normal BFGS step
   52    -435.1445522491      1.01E-02 Line search: overstep
   53    -435.1445956960      1.59E-04 Dog-leg BFGS step
   54    -435.1445950968      1.86E-03 Line search: overstep
   55    -435.1445959659      1.85E-04 Dog-leg BFGS step
   56    -435.1445961608      3.55E-04 Normal BFGS step
   57    -435.1445963504      2.45E-04 Normal BFGS step
   58    -435.1445966072      2.42E-04 Normal BFGS step
   59    -435.1445969335      1.07E-04 Normal BFGS step
   60    -435.1445960711      1.72E-03 Line search: overstep
   61    -435.1445970116      1.34E-04 Normal BFGS step
   62    -435.1445971416      3.46E-04 Normal BFGS step
   63    -435.1445972985      6.00E-05 Normal BFGS step
   64    -435.1445973827      4.96E-05 Normal BFGS step
   65    -435.1445974418      1.71E-04 Normal BFGS step
   66    -435.1445974864      6.11E-05 Normal BFGS step
   67    -435.1445975212      6.59E-05 Normal BFGS step
   68    -435.1445975677      1.28E-04 Normal BFGS step
   69    -435.1445976084      7.59E-05 Normal BFGS step
   70    -435.1445976434      7.72E-05 Normal BFGS step
   71    -435.1445976497      2.24E-04 Normal BFGS step
   72    -435.1445977504      6.88E-05 Normal BFGS step
   73    -435.1445978115      1.06E-04 Line search: understep
   74    -435.1445948912      2.63E-03 Line search: overstep
   75    -435.1445978607      6.16E-05 Normal BFGS step
   76    -435.1445949430      2.65E-03 Line search: overstep
   77    -435.1445979028      5.81E-05 Normal BFGS step
   78    -435.1445979378      2.97E-04 Normal BFGS step
   79    -435.1445980660      4.91E-05 Normal BFGS step
   80    -435.1445981037      2.77E-05 Normal BFGS step
   81    -435.1445981284      9.36E-05 Normal BFGS step
   82    -435.1445981449      1.24E-05 Normal BFGS step
   83    -435.1445981471      1.07E-05 Normal BFGS step
   84    -435.1445981483      8.40E-06 Normal BFGS step
   85    -435.1445981485      8.47E-06 Normal BFGS step
   86    -435.1445981488      8.19E-06 Normal BFGS step
   87    -435.1445981490      7.55E-06 Normal BFGS step
   88    -435.1445981495      7.02E-06 Normal BFGS step
   89    -435.1445981503      8.05E-06 Normal BFGS step
   90    -435.1445981513      8.35E-06 Normal BFGS step
   91    -435.1445981520      5.49E-06 Normal BFGS step
   92    -435.1445981522      1.39E-06 Normal BFGS step
   93    -435.1445981522      4.86E-07 Normal BFGS step
   94    -435.1445981522      1.43E-07 Normal BFGS step
   95    -435.1445981522      7.25E-08 Convergence criterion met
 ---------------------------------------
 <S^2> = 0.7529
 SCF time:  CPU 13.44 s  wall 19.20 s
 SCF   energy in the final basis set = -435.1445981522
 Total energy in the final basis set = -435.1445981522
================================================================================
|                                                                              |
|                                 A D C  M A N                                 |
|                                                                              |
 ------------------------------------------------------------------------------ 
|                                                                              |
| Components:                                                                  |
|                                                                              |
| - libvmm - 1.2-release                                                       |
|   Authors:                                                                   |
|   Evgeny Epifanovsky, Ilya Kaliman                                           |
|                                                                              |
| - libtensor - 2.4-trunk                                                      |
|   Authors:                                                                   |
|   Evgeny Epifanovsky, Michael Wormit, Dmitry Zuev, Sam Manzer                |
|                                                                              |
| - libwfa - 1.1-beta                                                          |
|   Authors:                                                                   |
|   Felix Plasser, Stefanie Baeppler, Benjamin Thomitzni, Michael Wormit       |
|                                                                              |
| - libadc - 1.0-beta                                                          |
|   Authors:                                                                   |
|   Michael Wormit, Philipp H. P. Harbach, Caroline Krauter, Dirk Rehn,        |
|   Matthias Schneider, Jan Wenzel                                             |
|                                                                              |
| - adcman - 2.4-beta                                                          |
|   Authors:                                                                   |
|   Michael Wormit, Philipp H. P. Harbach, Caroline Krauter, Dirk Rehn,        |
|   Jan Wenzel, Andreas Dreuw                                                  |
|                                                                              |
| Authors of earlier versions of ADCMAN:                                       |
| Andreas Dreuw, Jan Hendrik Starcke, Dirk Rehn, Michael Wormit                |
|                                                                              |
================================================================================

 
 Alpha MOs, Unrestricted
 -- Occupied --                  
-26.744 -26.743 -26.743 -26.594 -11.964  -2.150  -2.044  -2.043
  1 A     2 A     3 A     4 A     5 A     6 A     7 A     8 A                  
 -1.844  -1.320  -1.224  -1.224  -1.171  -1.063  -1.063  -1.033
  9 A    10 A    11 A    12 A    13 A    14 A    15 A    16 A                  
 -1.033  -1.015  -1.012  -0.906  -0.904
 17 A    18 A    19 A    20 A    21 A                                          
 -- Virtual --                   
 -0.276   0.076   0.147   0.148   0.332   0.386   0.388   0.405
 22 A    23 A    24 A    25 A    26 A    27 A    28 A    29 A                  
  0.922   1.013   1.014   1.029   1.077   1.079   1.182   1.214
 30 A    31 A    32 A    33 A    34 A    35 A    36 A    37 A                  
  1.247   1.286   1.286   1.303   1.304   1.311   1.401   1.464
 38 A    39 A    40 A    41 A    42 A    43 A    44 A    45 A                  
  1.641   1.642   1.741   1.745   1.781   1.817   1.828   1.856
 46 A    47 A    48 A    49 A    50 A    51 A    52 A    53 A                  
  1.875   1.875   1.904   1.925   1.946   1.970   1.973   2.005
 54 A    55 A    56 A    57 A    58 A    59 A    60 A    61 A                  
  2.058   2.475   2.546   2.548   2.875   2.878   3.135   3.135
 62 A    63 A    64 A    65 A    66 A    67 A    68 A    69 A                  
  3.158   3.576   4.222   4.505   4.511   4.660
 70 A    71 A    72 A    73 A    74 A    75 A                                  
 
 Beta MOs, Unrestricted
 -- Occupied --                  
-26.744 -26.743 -26.743 -26.546 -11.964  -2.151  -2.044  -2.043
  1 A     2 A     3 A     4 A     5 A     6 A     7 A     8 A                  
 -1.652  -1.320  -1.224  -1.224  -1.171  -1.063  -1.063  -1.033
  9 A    10 A    11 A    12 A    13 A    14 A    15 A    16 A                  
 -1.033  -1.015  -0.853  -0.851
 17 A    18 A    19 A    20 A                                                  
 -- Virtual --                   
 -0.276  -0.093   0.076   0.148   0.148   0.334   0.386   0.388
 21 A    22 A    23 A    24 A    25 A    26 A    27 A    28 A                  
  0.405   0.950   1.013   1.014   1.030   1.079   1.079   1.229
 29 A    30 A    31 A    32 A    33 A    34 A    35 A    36 A                  
  1.271   1.286   1.286   1.302   1.305   1.311   1.401   1.404
 37 A    38 A    39 A    40 A    41 A    42 A    43 A    44 A                  
  1.473   1.641   1.642   1.745   1.745   1.781   1.829   1.833
 45 A    46 A    47 A    48 A    49 A    50 A    51 A    52 A                  
  1.872   1.930   1.951   1.963   1.967   1.968   1.973   1.978
 53 A    54 A    55 A    56 A    57 A    58 A    59 A    60 A                  
  2.013   2.058   2.476   2.546   2.548   2.875   2.878   3.135
 61 A    62 A    63 A    64 A    65 A    66 A    67 A    68 A                  
  3.135   3.159   3.616   4.222   4.505   4.511   4.660
 69 A    70 A    71 A    72 A    73 A    74 A    75 A                          
 

--------------------------------------------------------------------------------
                                   HF Summary                                   
--------------------------------------------------------------------------------
  Energy:                                                 -435.1445981522 a.u.
  Dip. moment [a.u.]:                  [ -54.295818,  181.711748,    0.155832]
  Total dipole [Debye]:                                             482.042959
  <r^2> [a.u.]:                        [ 178.168088, 1043.568320,  112.653745]
  Total <r^2> [a.u.]:                                              1334.390153
--------------------------------------------------------------------------------

--------------------------------------------------------------------------------
                                 MP(2) Summary                                  
--------------------------------------------------------------------------------
  Energy contribution:                                      -0.7503759360 a.u.
  Total energy:                                           -435.8949740882 a.u.
  Dip. moment [a.u.]:                  [ -54.351425,  181.571664,    0.201624]
  Total dipole [Debye]:                                             481.742438
  <r^2> [a.u.]:                        [ 177.986712, 1042.120491,  112.309072]
  Total <r^2> [a.u.]:                                              1332.416275
--------------------------------------------------------------------------------
  Starting Davidson ... 
--------------------------------------------------------------------------------
   It NVec Conv  Avg. Norm  Max. Norm  Conv. states           Remark
--------------------------------------------------------------------------------
        20    0  2.053e-01  1.130e+00 10.9377 n n n n n n n n Guess.
    1   40    0  6.374e-02  7.442e-01 10.7731 n n n n n n n n 
    2   60    0  2.314e-02  3.707e-01 10.7717 n n n n n n n n 
    3   80    0  7.394e-03  1.168e-01 10.7717 n n n n n n n n 
    4  100    0  2.786e-03  3.368e-02 10.7717 n n n n n n n n 
    5   40    0  3.490e-03  4.840e-02 10.7717 n n n n n n n n Subspace collapsed.
    6   60    0  4.565e-03  6.715e-02 10.7717 n n n n n n n n 
    7   80    0  3.779e-03  5.113e-02 10.7717 n n n n n n n n 
    8  100    3  2.431e-03  3.287e-02 10.7717 y y n n y n n n 
    9   40    7  1.572e-03  2.194e-02 10.7717 y y n y y n y y Subspace collapsed.
   10   60    8  1.049e-03  1.369e-02 10.7717 y y n y y y y y 
   11   80   11  5.845e-04  7.517e-03 10.7717 y y y y y y y y 
   12  100   15  6.653e-04  8.079e-03 10.7717 y y y y y y y y 
   13   40   16  4.950e-04  6.500e-03 10.7717 y y y y y y y y Subspace collapsed.
   14   60   16  6.240e-04  8.006e-03 10.7717 y y y y y y y y 
   15   80   16  5.961e-04  1.013e-02 10.7717 y y y y y y y y 
   16  100   17  1.058e-03  1.968e-02 10.7717 y y y y y y y y 
   17   20   17  1.058e-03  1.968e-02 10.7717 y y y y y y y y Subspace collapsed.
   18   20   17  1.058e-03  1.968e-02 10.7717 y y y y y y y y 
   19   40   17  5.273e-04  1.001e-02 10.7717 y y y y y y y y 
   20   46   17  5.194e-04  9.787e-03 10.7717 y y y y y y y y 
   21   47   17  5.194e-04  9.781e-03 10.7717 y y y y y y y y 
   22   48   17  5.197e-04  9.787e-03 10.7717 y y y y y y y y 
   23   49   17  5.196e-04  9.784e-03 10.7717 y y y y y y y y 
   24   49   17  5.196e-04  9.784e-03 10.7717 y y y y y y y y 
   25   68   17  3.666e-04  6.916e-03 10.7717 y y y y y y y y 
   26   68   17  3.666e-04  6.916e-03 10.7717 y y y y y y y y 
   27   69   17  3.664e-04  6.913e-03 10.7717 y y y y y y y y 
   28   80   17  2.760e-04  5.099e-03 10.7717 y y y y y y y y 
   29   91   17  2.004e-04  3.429e-03 10.7717 y y y y y y y y 
   30  100   17  2.091e-04  3.625e-03 10.7717 y y y y y y y y 
   31   31   17  2.222e-04  4.230e-03 10.7717 y y y y y y y y Subspace collapsed.
   32   42   17  3.100e-04  6.107e-03 10.7717 y y y y y y y y 
   33   53   17  3.769e-04  7.468e-03 10.7717 y y y y y y y y 
   34   57   17  3.767e-04  7.463e-03 10.7717 y y y y y y y y 
   35   67   17  5.580e-04  1.110e-02 10.7717 y y y y y y y y 
   36   75   17  7.455e-04  1.478e-02 10.7717 y y y y y y y y 
   37   77   17  7.497e-04  1.486e-02 10.7717 y y y y y y y y 
   38   78   17  7.496e-04  1.486e-02 10.7717 y y y y y y y y 
   39   79   17  7.503e-04  1.487e-02 10.7717 y y y y y y y y 
   40   79   17  7.503e-04  1.487e-02 10.7717 y y y y y y y y 
   41   94   17  4.864e-04  9.472e-03 10.7717 y y y y y y y y 
   42   97   17  2.665e-04  4.786e-03 10.7717 y y y y y y y y 
   43  100   17  1.600e-04  2.542e-03 10.7717 y y y y y y y y 
   44   23   17  9.918e-05  1.575e-03 10.7717 y y y y y y y y Subspace collapsed.
   45   26   17  9.009e-05  1.414e-03 10.7717 y y y y y y y y 
   46   29   17  7.633e-05  1.186e-03 10.7717 y y y y y y y y 
   47   32   17  7.052e-05  1.083e-03 10.7717 y y y y y y y y 
   48   35   17  6.774e-05  1.023e-03 10.7717 y y y y y y y y 
   49   38   17  4.348e-05  6.535e-04 10.7717 y y y y y y y y 
   50   41   17  2.577e-05  3.868e-04 10.7717 y y y y y y y y 
   51   44   17  1.753e-05  2.602e-04 10.7717 y y y y y y y y 
   52   47   17  1.401e-05  2.056e-04 10.7717 y y y y y y y y 
   53   50   17  1.003e-05  1.459e-04 10.7717 y y y y y y y y 
   54   53   17  7.161e-06  1.028e-04 10.7717 y y y y y y y y 
   55   56   17  5.770e-06  8.188e-05 10.7717 y y y y y y y y 
   56   59   17  7.476e-06  1.072e-04 10.7717 y y y y y y y y 
   57   62   17  1.160e-05  1.770e-04 10.7717 y y y y y y y y 
   58   65   17  2.167e-05  3.772e-04 10.7717 y y y y y y y y 
   59   68   17  3.627e-05  7.033e-04 10.7717 y y y y y y y y 
--------------------------------------------------------------------------------
  Davidson Summary: 
 ------------------------------------------------------------
  State  0: excitation energy =  10.7717 a.u.   (converged)
  State  1: excitation energy =  10.8420 a.u.   (converged)
  State  2: excitation energy =  11.1682 a.u.   (converged)
  State  3: excitation energy =  11.1828 a.u.   (converged)
  State  4: excitation energy =  11.1842 a.u.   (converged)
  State  5: excitation energy =  11.2376 a.u.   (converged)
  State  6: excitation energy =  11.2575 a.u.   (converged)
  State  7: excitation energy =  11.2599 a.u.   (converged)
  State  8: excitation energy =  11.2647 a.u.   (converged)
  State  9: excitation energy =  11.5311 a.u.   (converged)
  State 10: excitation energy =  11.5634 a.u.   (converged)
  State 11: excitation energy =  11.5706 a.u.   (converged)
  State 12: excitation energy =  11.5722 a.u.   (converged)
  State 13: excitation energy =  11.5729 a.u.   (converged)
  State 14: excitation energy =  11.5894 a.u.   (converged)
  State 15: excitation energy =  11.5902 a.u.   (converged)
  State 16: excitation energy =  11.6009 a.u.   (converged)
  State 17: excitation energy =  12.2270 a.u.   (not converged)
  State 18: excitation energy =  12.2271 a.u.   (not converged)
  State 19: excitation energy =  12.2310 a.u.   (not converged)
 ------------------------------------------------------------


--------------------------------------------------------------------------------
                             Excited State Summary
--------------------------------------------------------------------------------

  Excited state  1 (A)                                             [converged]
  ----------------------------------------------------------------------------
  Term symbol:  2 (-) A                                     R^2 =  1.61660e-13

  Total energy:                                           -425.1232847015 a.u.
  Excitation energy:                                             293.112575 eV

  Osc. strength:                                                      0.000000
  Trans. dip. moment [a.u.]:           [  -0.000031,   -0.000079,    0.000026]
  <i|r^2|0> [a.u.]:                    [   0.000070,   -0.000814,   -0.000013]

  V1^2 = 0.9561, V2^2 = 0.0439

  Important amplitudes:
     core i     occ j      vir a      vir b          v   
    ------------------------------------------------------
     5 (A) A              22 (A) A                -0.6545
     5 (A) B              21 (A) B                 0.6534
    ------------------------------------------------------
  ----------------------------------------------------------------------------


  Excited state  2 (A)                                             [converged]
  ----------------------------------------------------------------------------
  Term symbol:  3 (-) A                                     R^2 =  1.37566e-13

  Total energy:                                           -425.0529616728 a.u.
  Excitation energy:                                             295.026162 eV

  Osc. strength:                                                      0.093660
  Trans. dip. moment [a.u.]:           [  -0.039873,   -0.101144,    0.033735]
  <i|r^2|0> [a.u.]:                    [   0.090495,   -1.051456,   -0.014971]

  V1^2 = 0.9508, V2^2 = 0.0492

  Important amplitudes:
     core i     occ j      vir a      vir b          v   
    ------------------------------------------------------
     5 (A) B              21 (A) B                -0.6656
     5 (A) A              22 (A) A                -0.6644
    ------------------------------------------------------
  ----------------------------------------------------------------------------


  Excited state  3 (A)                                             [converged]
  ----------------------------------------------------------------------------
  Term symbol:  4 (-) A                                     R^2 =  1.31129e-13

  Total energy:                                           -424.7267262782 a.u.
  Excitation energy:                                             303.903479 eV

  Osc. strength:                                                      0.000000
  Trans. dip. moment [a.u.]:           [   0.000024,    0.000060,   -0.000019]
  <i|r^2|0> [a.u.]:                    [  -0.000049,    0.000636,    0.000014]

  V1^2 = 0.9289, V2^2 = 0.0711

  Important amplitudes:
     core i     occ j      vir a      vir b          v   
    ------------------------------------------------------
     5 (A) A              23 (A) A                 0.5986
     5 (A) B              23 (A) B                -0.5979
    ------------------------------------------------------
  ----------------------------------------------------------------------------


  Excited state  4 (A)                                             [converged]
  ----------------------------------------------------------------------------
  Term symbol:  5 (-) A                                     R^2 =  1.93881e-13

  Total energy:                                           -424.7121403233 a.u.
  Excitation energy:                                             304.300383 eV

  Osc. strength:                                                      0.000000
  Trans. dip. moment [a.u.]:           [  -0.000067,    0.000037,    0.000030]
  <i|r^2|0> [a.u.]:                    [   0.000145,    0.000385,   -0.000023]

  V1^2 = 0.9509, V2^2 = 0.0491

  Important amplitudes:
     core i     occ j      vir a      vir b          v   
    ------------------------------------------------------
     5 (A) A              24 (A) A                 0.5325
     5 (A) B              25 (A) B                -0.5205
    ------------------------------------------------------
  ----------------------------------------------------------------------------


  Excited state  5 (A)                                             [converged]
  ----------------------------------------------------------------------------
  Term symbol:  6 (-) A                                     R^2 =  1.25484e-13

  Total energy:                                           -424.7107729678 a.u.
  Excitation energy:                                             304.337590 eV

  Osc. strength:                                                      0.000000
  Trans. dip. moment [a.u.]:           [  -0.000016,   -0.000003,   -0.000014]
  <i|r^2|0> [a.u.]:                    [   0.000034,   -0.000032,    0.000008]

  V1^2 = 0.9508, V2^2 = 0.0492

  Important amplitudes:
     core i     occ j      vir a      vir b          v   
    ------------------------------------------------------
     5 (A) A              25 (A) A                 0.5313
     5 (A) B              24 (A) B                 0.5180
    ------------------------------------------------------
  ----------------------------------------------------------------------------


  Excited state  6 (A)                                             [converged]
  ----------------------------------------------------------------------------
  Term symbol:  7 (-) A                                     R^2 =  3.26706e-13

  Total energy:                                           -424.6574191279 a.u.
  Excitation energy:                                             305.789422 eV

  Osc. strength:                                                      0.022959
  Trans. dip. moment [a.u.]:           [  -0.022804,   -0.049538,    0.009518]
  <i|r^2|0> [a.u.]:                    [   0.030990,   -0.545507,   -0.022768]

  V1^2 = 0.9166, V2^2 = 0.0834

  Important amplitudes:
     core i     occ j      vir a      vir b          v   
    ------------------------------------------------------
     5 (A) B              23 (A) B                -0.6329
     5 (A) A              23 (A) A                -0.6324
    ------------------------------------------------------
  ----------------------------------------------------------------------------


  Excited state  7 (A)                                             [converged]
  ----------------------------------------------------------------------------
  Term symbol:  8 (-) A                                     R^2 =  1.66849e-13

  Total energy:                                           -424.6375150122 a.u.
  Excitation energy:                                             306.331041 eV

  Osc. strength:                                                      0.093895
  Trans. dip. moment [a.u.]:           [  -0.089969,    0.050029,    0.043746]
  <i|r^2|0> [a.u.]:                    [   0.192377,    0.522647,   -0.032804]

  V1^2 = 0.9255, V2^2 = 0.0745

  Important amplitudes:
     core i     occ j      vir a      vir b          v   
    ------------------------------------------------------
     5 (A) A              24 (A) A                -0.5232
     5 (A) B              25 (A) B                -0.4946
    ------------------------------------------------------
  ----------------------------------------------------------------------------


  Excited state  8 (A)                                             [converged]
  ----------------------------------------------------------------------------
  Term symbol:  9 (-) A                                     R^2 =  2.08154e-13

  Total energy:                                           -424.6350979253 a.u.
  Excitation energy:                                             306.396813 eV

  Osc. strength:                                                      0.114717
  Trans. dip. moment [a.u.]:           [  -0.056905,   -0.010147,   -0.109275]
  <i|r^2|0> [a.u.]:                    [   0.122903,   -0.103291,    0.068624]

  V1^2 = 0.9419, V2^2 = 0.0581

  Important amplitudes:
     core i     occ j      vir a      vir b          v   
    ------------------------------------------------------
     5 (A) A              25 (A) A                -0.5703
     5 (A) B              24 (A) B                 0.5624
    ------------------------------------------------------
  ----------------------------------------------------------------------------


  Excited state  9 (A)                                             [converged]
  ----------------------------------------------------------------------------
  Term symbol:  10 (-) A                                    R^2 =  1.78635e-13

  Total energy:                                           -424.6302830061 a.u.
  Excitation energy:                                             306.527834 eV

  Osc. strength:                                                      0.021666
  Trans. dip. moment [a.u.]:           [  -0.044772,    0.023680,    0.017883]
  <i|r^2|0> [a.u.]:                    [   0.095663,    0.247571,   -0.013811]

  V1^2 = 0.8664, V2^2 = 0.1336

  Important amplitudes:
     core i     occ j      vir a      vir b          v   
    ------------------------------------------------------
     5 (A) B              22 (A) B                 0.8256
     5 (A) B              25 (A) B                -0.2718
    ------------------------------------------------------
  ----------------------------------------------------------------------------


  Excited state 10 (A)                                             [converged]
  ----------------------------------------------------------------------------
  Term symbol:  11 (-) A                                    R^2 =  2.40925e-13

  Total energy:                                           -424.3638324978 a.u.
  Excitation energy:                                             313.778321 eV

  Osc. strength:                                                      0.000020
  Trans. dip. moment [a.u.]:           [   0.000533,    0.001420,   -0.000529]
  <i|r^2|0> [a.u.]:                    [  -0.001439,    0.014590,    0.000022]

  V1^2 = 0.9153, V2^2 = 0.0847

  Important amplitudes:
     core i     occ j      vir a      vir b          v   
    ------------------------------------------------------
     5 (A) A              26 (A) A                -0.5853
     5 (A) B              26 (A) B                 0.5507
    ------------------------------------------------------
  ----------------------------------------------------------------------------


  Excited state 11 (A)                                             [converged]
  ----------------------------------------------------------------------------
  Term symbol:  12 (-) A                                    R^2 =  1.27923e-13

  Total energy:                                           -424.3315739564 a.u.
  Excitation energy:                                             314.656120 eV

  Osc. strength:                                                      0.000046
  Trans. dip. moment [a.u.]:           [  -0.000874,   -0.002180,    0.000714]
  <i|r^2|0> [a.u.]:                    [   0.002208,   -0.022523,   -0.000086]

  V1^2 = 0.8951, V2^2 = 0.1049

  Important amplitudes:
     core i     occ j      vir a      vir b          v   
    ------------------------------------------------------
     5 (A) B              29 (A) B                -0.5202
     5 (A) A              29 (A) A                 0.5202
    ------------------------------------------------------
  ----------------------------------------------------------------------------


  Excited state 12 (A)                                             [converged]
  ----------------------------------------------------------------------------
  Term symbol:  13 (-) A                                    R^2 =  2.47676e-13

  Total energy:                                           -424.3243707914 a.u.
  Excitation energy:                                             314.852128 eV

  Osc. strength:                                                      0.037670
  Trans. dip. moment [a.u.]:           [  -0.025694,   -0.062289,    0.018531]
  <i|r^2|0> [a.u.]:                    [   0.062910,   -0.645106,   -0.002875]

  V1^2 = 0.9075, V2^2 = 0.0925

  Important amplitudes:
     core i     occ j      vir a      vir b          v   
    ------------------------------------------------------
     5 (A) B              26 (A) B                 0.6778
     5 (A) A              26 (A) A                 0.6293
    ------------------------------------------------------
  ----------------------------------------------------------------------------


  Excited state 13 (A)                                             [converged]
  ----------------------------------------------------------------------------
  Term symbol:  14 (-) A                                    R^2 =  3.93324e-13

  Total energy:                                           -424.3227433162 a.u.
  Excitation energy:                                             314.896414 eV

  Osc. strength:                                                      0.000032
  Trans. dip. moment [a.u.]:           [  -0.001693,    0.000833,    0.000731]
  <i|r^2|0> [a.u.]:                    [   0.003541,    0.008766,   -0.000523]

  V1^2 = 0.8953, V2^2 = 0.1047

  Important amplitudes:
     core i     occ j      vir a      vir b          v   
    ------------------------------------------------------
     5 (A) A              27 (A) A                 0.5418
     5 (A) B              27 (A) B                -0.5088
    ------------------------------------------------------
  ----------------------------------------------------------------------------


  Excited state 14 (A)                                             [converged]
  ----------------------------------------------------------------------------
  Term symbol:  15 (-) A                                    R^2 =  2.17294e-13

  Total energy:                                           -424.3221067629 a.u.
  Excitation energy:                                             314.913736 eV

  Osc. strength:                                                      0.000076
  Trans. dip. moment [a.u.]:           [  -0.001215,   -0.002779,    0.000820]
  <i|r^2|0> [a.u.]:                    [   0.002925,   -0.028807,   -0.000149]

  V1^2 = 0.8955, V2^2 = 0.1045

  Important amplitudes:
     core i     occ j      vir a      vir b          v   
    ------------------------------------------------------
     5 (A) A              28 (A) A                 0.5248
     5 (A) B              28 (A) B                -0.5218
    ------------------------------------------------------
  ----------------------------------------------------------------------------


  Excited state 15 (A)                                             [converged]
  ----------------------------------------------------------------------------
  Term symbol:  16 (-) A                                    R^2 =  4.24010e-13

  Total energy:                                           -424.3055413566 a.u.
  Excitation energy:                                             315.364503 eV

  Osc. strength:                                                      0.033047
  Trans. dip. moment [a.u.]:           [  -0.053267,    0.029186,    0.024249]
  <i|r^2|0> [a.u.]:                    [   0.111051,    0.306877,   -0.017496]

  V1^2 = 0.8985, V2^2 = 0.1015

  Important amplitudes:
     core i     occ j      vir a      vir b          v   
    ------------------------------------------------------
     5 (A) B              27 (A) B                 0.5833
     5 (A) A              27 (A) A                 0.5512
    ------------------------------------------------------
  ----------------------------------------------------------------------------


  Excited state 16 (A)                                             [converged]
  ----------------------------------------------------------------------------
  Term symbol:  17 (-) A                                    R^2 =  3.04869e-13

  Total energy:                                           -424.3047438747 a.u.
  Excitation energy:                                             315.386204 eV

  Osc. strength:                                                      0.033441
  Trans. dip. moment [a.u.]:           [  -0.029459,   -0.005095,   -0.058602]
  <i|r^2|0> [a.u.]:                    [   0.061408,   -0.053352,    0.038768]

  V1^2 = 0.8987, V2^2 = 0.1013

  Important amplitudes:
     core i     occ j      vir a      vir b          v   
    ------------------------------------------------------
     5 (A) B              28 (A) B                 0.5659
     5 (A) A              28 (A) A                 0.5654
    ------------------------------------------------------
  ----------------------------------------------------------------------------


  Excited state 17 (A)                                             [converged]
  ----------------------------------------------------------------------------
  Term symbol:  18 (-) A                                    R^2 =  9.40989e-13

  Total energy:                                           -424.2940529218 a.u.
  Excitation energy:                                             315.677119 eV

  Osc. strength:                                                      0.002152
  Trans. dip. moment [a.u.]:           [  -0.005958,   -0.014852,    0.004703]
  <i|r^2|0> [a.u.]:                    [  -0.010589,   -0.179096,   -0.026044]

  V1^2 = 0.9056, V2^2 = 0.0944

  Important amplitudes:
     core i     occ j      vir a      vir b          v   
    ------------------------------------------------------
     5 (A) B              29 (A) B                 0.6430
     5 (A) A              29 (A) A                 0.6424
    ------------------------------------------------------
  ----------------------------------------------------------------------------


  Excited state 18 (A)                                         [not converged]
  ----------------------------------------------------------------------------
  Term symbol:  19 (-) A                                    R^2 =  3.52221e-05

  Total energy:                                           -423.6680105872 a.u.
  Excitation energy:                                             332.712598 eV


  V1^2 = 0.8698, V2^2 = 0.1302

  Important amplitudes:
     core i     occ j      vir a      vir b          v   
    ------------------------------------------------------
     5 (A) A              31 (A) A                 0.5386
     5 (A) B              31 (A) B                -0.5372
    ------------------------------------------------------
  ----------------------------------------------------------------------------


  Excited state 19 (A)                                         [not converged]
  ----------------------------------------------------------------------------
  Term symbol:  20 (-) A                                    R^2 =  1.73659e-04

  Total energy:                                           -423.6678292627 a.u.
  Excitation energy:                                             332.717532 eV


  V1^2 = 0.8700, V2^2 = 0.1300

  Important amplitudes:
     core i     occ j      vir a      vir b          v   
    ------------------------------------------------------
     5 (A) A              32 (A) A                 0.5340
     5 (A) B              32 (A) B                -0.5284
    ------------------------------------------------------
  ----------------------------------------------------------------------------


  Excited state 20 (A)                                         [not converged]
  ----------------------------------------------------------------------------
  Term symbol:  21 (-) A                                    R^2 =  7.03330e-04

  Total energy:                                           -423.6640182424 a.u.
  Excitation energy:                                             332.821235 eV


  V1^2 = 0.8695, V2^2 = 0.1305

  Important amplitudes:
     core i     occ j      vir a      vir b          v   
    ------------------------------------------------------
     5 (A) B              31 (A) B                 0.5053
     5 (A) A              31 (A) A                 0.5031
    ------------------------------------------------------
  ----------------------------------------------------------------------------


--------------------------------------------------------------------------------
  Time of ADC calculation:  CPU 1265.57 s  wall 1294.57 s
================================================================================
 
 --------------------------------------------------------------
 
                    Orbital Energies (a.u.)
 --------------------------------------------------------------
 
 Alpha MOs
 -- Occupied --
-26.744 -26.743 -26.743 -26.594 -11.964  -2.150  -2.044  -2.043
 -1.844  -1.320  -1.224  -1.224  -1.171  -1.063  -1.063  -1.033
 -1.033  -1.015  -1.012  -0.906  -0.904
 -- Virtual --
 -0.276   0.076   0.147   0.148   0.332   0.386   0.388   0.405
  0.922   1.013   1.014   1.029   1.077   1.079   1.182   1.214
  1.247   1.286   1.286   1.303   1.304   1.311   1.401   1.464
  1.641   1.642   1.741   1.745   1.781   1.817   1.828   1.856
  1.875   1.875   1.904   1.925   1.946   1.970   1.973   2.005
  2.058   2.475   2.546   2.548   2.875   2.878   3.135   3.135
  3.158   3.576   4.222   4.505   4.511   4.660
 
 Beta MOs
 -- Occupied --
-26.744 -26.743 -26.743 -26.546 -11.964  -2.151  -2.044  -2.043
 -1.652  -1.320  -1.224  -1.224  -1.171  -1.063  -1.063  -1.033
 -1.033  -1.015  -0.853  -0.851
 -- Virtual --
 -0.276  -0.093   0.076   0.148   0.148   0.334   0.386   0.388
  0.405   0.950   1.013   1.014   1.030   1.079   1.079   1.229
  1.271   1.286   1.286   1.302   1.305   1.311   1.401   1.404
  1.473   1.641   1.642   1.745   1.745   1.781   1.829   1.833
  1.872   1.930   1.951   1.963   1.967   1.968   1.973   1.978
  2.013   2.058   2.476   2.546   2.548   2.875   2.878   3.135
  3.135   3.159   3.616   4.222   4.505   4.511   4.660
 --------------------------------------------------------------
 
          Ground-State Mulliken Net Atomic Charges

     Atom                 Charge (a.u.)    Spin (a.u.)
  --------------------------------------------------------
      1 C                     1.280977      -0.002178
      2 F                    -0.099901      -0.000086
      3 F                    -0.099985      -0.000085
      4 F                     0.015605       1.002421
      5 F                    -0.096696      -0.000072
  --------------------------------------------------------
  Sum of atomic charges =     1.000000
  Sum of spin   charges =     1.000000

 -----------------------------------------------------------------
                    Cartesian Multipole Moments
 -----------------------------------------------------------------
    Charge (ESU x 10^10)
                 4.8032
    Dipole Moment (Debye)
         X      -2.8440      Y      12.7980      Z      -0.6673
       Tot      13.1272
    Quadrupole Moments (Debye-Ang)
        XX     -18.7803     XY      -7.3294     YY      14.5071
        XZ      -0.0571     YZ      -2.2121     ZZ     -20.8283
    Octopole Moments (Debye-Ang^2)
       XXX      41.9972    XXY     -44.5779    XYY      -4.8978
       YYY     -48.8891    XXZ       1.2809    XYZ       0.6296
       YYZ      -6.1975    XZZ      13.5075    YZZ     -48.3383
       ZZZ      -0.7421
    Hexadecapole Moments (Debye-Ang^3)
      XXXX    -140.3971   XXXY      79.4927   XXYY    -162.3542
      XYYY      25.8465   YYYY    -611.9604   XXXZ       5.3220
      XXYZ       9.4856   XYYZ       4.9625   YYYZ      10.5361
      XXZZ     -37.0429   XYZZ      23.9903   YYZZ    -159.7783
      XZZZ      10.0320   YZZZ      24.3594   ZZZZ     -88.6984
 -----------------------------------------------------------------
Archival summary:
1\1\tp-linux1\SP\HF\6-31G*\41(1+,2)\thomas\WedMar2218:16:112017WedMar2218:16:112017\0\\#,HF,6-31G*,\\1,2\C\F,1,1.24618\F,1,1.24886,2,115.852\F,1,1.24895,2,115.822,3,-140.763,0\F,1,3.04361,2,105.316,3,109.48,0\\HF=-435.144598\\@

 Total job time:  1315.83s(wall), 1280.86s(cpu) 
 Wed Mar 22 18:16:11 2017

        *************************************************************
        *                                                           *
        *  Thank you very much for using Q-Chem.  Have a nice day.  *
        *                                                           *
        *************************************************************


0 sent ACK to 0 
now end server 0 ... 
cleanup process ... done
