
Running Job 1 of 1 ddtraj1t24.inp
qchem ddtraj1t24.inp_20525.0 /scratch/qchem/qchem20525/ 1
/mnt/software/qchem/bin/mpi/mpirun_qchem -machinefile /mnt/software/qchem/bin/mpi/machines -np 1 /mnt/software/qchem/exe/qcprog.exe ddtraj1t24.inp_20525.0 /scratch/qchem/qchem20525/

Process 0 of 1 is on tp-linux1 - thread support 0
initial socket setup ...start
initial socket setup ...done 
now start server 0 ... 

cmd = ssh tp-linux1 /mnt/software/qchem/bin/get_hostid 1040152833 > /scratch/qchem/qchem20525/lic.dat
                  Welcome to Q-Chem
     A Quantum Leap Into The Future Of Chemistry


 Q-Chem 4.3, Q-Chem, Inc., Pleasanton, CA (2015)

 Y. Shao,  Z. Gan,  E. Epifanovsky,  A. T. B. Gilbert,  M. Wormit,  
 J. Kussmann,  A. W. Lange,  A. Behn,  J. Deng,  X. Feng,  D. Ghosh,  
 M. Goldey,  P. R. Horn,  L. D. Jacobson,  I. Kaliman,  R. Z. Khaliullin,  
 T. Kus,  A. Landau,  J. Liu,  E. I. Proynov,  Y. M. Rhee,  R. M. Richard,  
 M. A. Rohrdanz,  R. P. Steele,  E. J. Sundstrom,  H. L. Woodcock III,  
 P. M. Zimmerman,  D. Zuev,  B. Albrecht,  E. Alguire,  B. Austin,  
 S. A. Baeppler,  G. J. O. Beran,  Y. A. Bernard,  E. Berquist,  
 K. Brandhorst,  K. B. Bravaya,  S. T. Brown,  D. Casanova,  C.-M. Chang,  
 Y. Chen,  S. H. Chien,  K. D. Closser,  D. L. Crittenden,  M. Diedenhofen,  
 R. A. DiStasio Jr.,  H. Do,  A. D. Dutoi,  R. G. Edgar,  P.-T. Fang,  
 S. Fatehi,  Q. Feng,  L. Fusti-Molnar,  A. Ghysels,  
 A. Golubeva-Zadorozhnaya,  J. Gomes,  A. Gunina,  M. W. D. Hanson-Heine,  
 P. H. P. Harbach,  A. W. Hauser,  E. G. Hohenstein,  Z. C. Holden,  K. Hui,  
 T.-C. Jagau,  H. Ji,  B. Kaduk,  K. Khistyaev,  Jaehoon Kim,  Jihan Kim,  
 R. A. King,  P. Klunzinger,  D. Kosenkov,  T. Kowalczyk,  C. M. Krauter,  
 K. U. Lao,  A. Laurent,  K. V. Lawler,  S. Lehtola,  S. V. Levchenko,  
 C. Y. Lin,  Y.-S. Lin,  F. Liu,  E. Livshits,  R. C. Lochan,  A. Luenser,  
 P. Manohar,  S. F. Manzer,  S.-P. Mao,  N. Mardirossian,  A. V. Marenich,  
 L. A. Martinez-Martinez,  S. A. Maurer,  N. J. Mayhall,  K. Nanda,  
 C. M. Oana,  R. Olivares-Amaya,  D. P. O'Neill,  J. A. Parkhill,  
 T. M. Perrine,  R. Peverati,  P. A. Pieniazek,  F. Plasser,  A. Prociuk,  
 D. R. Rehn,  E. Rosta,  N. J. Russ,  N. Sergueev,  S. M. Sharada,  
 S. Sharma,  D. W. Small,  A. Sodt,  T. Stauch,  T. Stein,  D. Stuck,  
 Y.-C. Su,  A. J. W. Thom,  T. Tsuchimochi,  L. Vogt,  O. Vydrov,  T. Wang,  
 M. A. Watson,  J. Wenzel,  A. White,  C. F. Williams,  V. Vanovschi,  
 S. Yeganeh,  S. R. Yost,  Z.-Q. You,  I. Y. Zhang,  X. Zhang,  Y. Zhao,  
 B. R. Brooks,  G. K. L. Chan,  D. M. Chipman,  C. J. Cramer,  
 W. A. Goddard III,  M. S. Gordon,  W. J. Hehre,  A. Klamt,  
 H. F. Schaefer III,  M. W. Schmidt,  C. D. Sherrill,  D. G. Truhlar,  
 A. Warshel,  X. Xu,  A. Aspuru-Guzik,  R. Baer,  A. T. Bell,  N. A. Besley,  
 J.-D. Chai,  A. Dreuw,  B. D. Dunietz,  T. R. Furlani,  S. R. Gwaltney,  
 C.-P. Hsu,  Y. Jung,  J. Kong,  D. S. Lambrecht,  W. Liang,  C. Ochsenfeld,  
 V. A. Rassolov,  L. V. Slipchenko,  J. E. Subotnik,  T. Van Voorhis,  
 J. M. Herbert,  A. I. Krylov,  P. M. W. Gill,  M. Head-Gordon

 Contributors to earlier versions of Q-Chem not listed above: 
 R. D. Adamson,  J. Baker,  E. F. C. Byrd,  A. K. Chakraborty,  C.-L. Cheng,  
 H. Dachsel,  R. J. Doerksen,  G. Hawkins,  A. Heyden,  S. Hirata,  
 G. Kedziora,  F. J. Keil,  C. Kelley,  P. P. Korambath,  W. Kurlancheek,  
 A. M. Lee,  M. S. Lee,  D. Liotard,  I. Lotan,  P. E. Maslen,  N. Nair,  
 D. Neuhauser,  R. Olson,  B. Peters,  J. Ritchie,  N. E. Schultz,  
 N. Shenvi,  A. C. Simmonett,  K. S. Thanthiriwatte,  Q. Wu,  W. Zhang

 Please cite Q-Chem as follows:
 Y. Shao et al., Mol. Phys. 113, 184-215 (2015)
 DOI: 10.1080/00268976.2014.952696

 Q-Chem 4.3.0 for Intel X86 Linux

 Parts of Q-Chem use Armadillo 5.200.1 (Boston Tea Smuggler).
 http://arma.sourceforge.net/

 Q-Chem begins on Wed Mar 22 20:30:53 2017  

Host: 
0

     Scratch files written to /scratch/qchem/qchem20525//
 Nov1815 1189b_ 19540  19532 5443   
 Parallel job on  1  processors
Processing $rem in /mnt/software/qchem/config/preferences.
 MEM_TOTAL  2000 

Checking the input file for inconsistencies... 	...done.

--------------------------------------------------------------
User input:
--------------------------------------------------------------
$comment
XAS calculation for valence excited states for CF4+ using cvs-adc(2) + 6-31G* basis set
job 1 - determination of HF orbitals
$end

$molecule
1 2
6  -0.461807  2.986268  -0.238958
9  0.585109  2.382646  -0.020107
9  -1.115804  3.308696  0.749521
9  -1.31245  0.68537  0.639492
9  -1.104239  2.619884  -1.217974
$end

$comment
cvs-adc(2) calculation
$end

$rem
mem_total 3000
mem_static 1500
sym_ignore true
method cvs-adc(2)
basis 6-31G*
ee_singlets 20
cc_rest_occ 5                  !only excitations from the lowest N orbitals
unrestricted  true
max_scf_cycles 200
SCF_ALGORITHM = DIIS_GDM
SCF_CONVERGENCE = 7
THRESH = 10
$end
--------------------------------------------------------------
 ----------------------------------------------------------------
             Standard Nuclear Orientation (Angstroms)
    I     Atom           X                Y                Z
 ----------------------------------------------------------------
    1      C      -0.4618070000     2.9862680000    -0.2389580000
    2      F       0.5851090000     2.3826460000    -0.0201070000
    3      F      -1.1158040000     3.3086960000     0.7495210000
    4      F      -1.3124500000     0.6853700000     0.6394920000
    5      F      -1.1042390000     2.6198840000    -1.2179740000
 ----------------------------------------------------------------
 Nuclear Repulsion Energy =   190.9931774047 hartrees
 There are       21 alpha and       20 beta electrons
 Requested basis set is 6-31G(d)
 There are 20 shells and 75 basis functions

 Total QAlloc Memory Limit   3000 MB
 Mega-Array Size      1467 MB
 MEM_STATIC part      1500 MB

                       Distance Matrix (Angstroms)
             C (  1)   F (  2)   F (  3)   F (  4)
   F (  2)  1.228124
   F (  3)  1.228317  2.083987
   F (  4)  2.605648  2.629933  2.632986
   F (  5)  1.226959  2.084482  2.084618  2.689958
 
 tim1(1): 
  0.000000000000000E+000
 tim1(2): 
  0.000000000000000E+000
 A cutoff of  1.0D-10 yielded    197 shell pairs
 There are      2954 function pairs
 
 -------------------------------------------------------
 OpenMP Integral Computing Module                       
 Release: version 1.0, May 2013, Q-Chem Inc. Pittsburgh 
 -------------------------------------------------------
 Integral Job Info:
 Integral job number is                      11
 Integral operator is                         1
 short-range coefficients                     0
 long-range coefficients              100000000
 Omega coefficients                           0
 if combine SR and LR in K                    0
 Integral screening is                        0
 Integral computing path is                   2
 max size of driver memory is            800000
 size of driver memory is                593474
 size of scratch memory is              2260544
 max col of scratch BK array               1296
 max len of scratch array in speh3          155
 max len of scratch index in speh4           18
 max int batch size is                      520
 min int batch size is                       52
 fixed nKL is                                52
 max L of basis functions is                  2
 order of int derivative is                   0
 number of shells is                         20
 number of basis is                          75
 number of cartesian basis is                75
 number of contracted shell pairs           197
 number of primitive shell pairs           1000
 maxK2 (contraction) of shell pair           36
 max number of K2 of shell pair               1
 max number of CS2 of shell pair             32
 max number of PS2 of shell pair            192
 mem total for path MDJ                   21832
 -------------------------------------------------------
 Smallest overlap matrix eigenvalue = 2.01E-03

 Scale SEOQF with 1.000000e+00/1.000000e-01/1.000000e+00

 Standard Electronic Orientation quadrupole field applied
 Nucleus-field energy     =     0.0000000102 hartrees
 Guess from superposition of atomic densities
 Warning:  Energy on first SCF cycle will be non-variational
 An unrestricted Hartree-Fock SCF calculation will be
 performed using Pulay DIIS + Geometric Direct Minimization
 SCF converges when RMS gradient is below 1.0E-07
 ---------------------------------------
  Cycle       Energy         DIIS Error
 ---------------------------------------
    1    -436.3504513952      9.06E-02
    2    -434.9456111919      1.80E-02
    3    -435.1104832057      8.65E-03 Done DIIS. Switching to GDM
    4    -435.1449991593      9.75E-03 Normal BFGS step
    5    -435.1461866996      9.33E-03 Normal BFGS step
    6    -435.1465919306      2.36E-03 Normal BFGS step
    7    -435.1466206051      2.30E-03 Normal BFGS step
    8    -435.1466314304      2.25E-03 Normal BFGS step
    9    -435.1466473397      2.15E-03 Normal BFGS step
   10    -435.1466793770      1.94E-03 Normal BFGS step
   11    -435.1467399022      1.61E-03 Normal BFGS step
   12    -435.1468235143      1.73E-03 Normal BFGS step
   13    -435.1468867876      1.04E-03 Normal BFGS step
   14    -435.1469080224      3.36E-04 Normal BFGS step
   15    -435.1469102917      1.80E-04 Normal BFGS step
   16    -435.1469106280      9.88E-05 Normal BFGS step
   17    -435.1469107338      3.50E-05 Normal BFGS step
   18    -435.1469107656      2.46E-05 Normal BFGS step
   19    -435.1469107732      2.47E-05 Normal BFGS step
   20    -435.1469107744      2.47E-05 Normal BFGS step
   21    -435.1469107763      2.47E-05 Normal BFGS step
   22    -435.1469107801      2.48E-05 Normal BFGS step
   23    -435.1469107894      2.50E-05 Normal BFGS step
   24    -435.1469108117      4.10E-05 Normal BFGS step
   25    -435.1469108674      6.56E-05 Normal BFGS step
   26    -435.1469110074      1.19E-04 Normal BFGS step
   27    -435.1469113649      2.11E-04 Normal BFGS step
   28    -435.1469120792      3.93E-04 Normal BFGS step
   29    -435.1469130394      6.01E-04 Normal BFGS step
   30    -435.1469138399      2.13E-03 Normal BFGS step
   31    -435.1469169904      3.89E-04 Normal BFGS step
   32    -435.1469187666      2.28E-04 Normal BFGS step
   33    -435.1469195221      1.37E-03 Normal BFGS step
   34    -435.1469206909      6.27E-04 Normal BFGS step
   35    -435.1469219311      3.60E-04 Normal BFGS step
   36    -435.1469246964      1.19E-03 Normal BFGS step
   37    -435.1469264301      3.48E-04 Normal BFGS step
   38    -435.1469295457      5.73E-04 Normal BFGS step
   39    -435.1469303544      1.68E-03 Normal BFGS step
   40    -435.1469335861      1.73E-04 Normal BFGS step
   41    -435.1469351002      2.37E-04 Normal BFGS step
   42    -435.1469257023      8.97E-03 Line search: overstep
   43    -435.1469358019      4.77E-04 Normal BFGS step
   44    -435.1469367252      1.14E-03 Normal BFGS step
   45    -435.1469380311      4.80E-04 Normal BFGS step
   46    -435.1469394045      2.13E-04 Normal BFGS step
   47    -435.1469406096      1.10E-03 Normal BFGS step
   48    -435.1469418801      2.15E-04 Normal BFGS step
   49    -435.1469428611      2.17E-04 Normal BFGS step
   50    -435.1469406199      4.87E-03 Line search: overstep
   51    -435.1469434775      3.99E-04 Normal BFGS step
   52    -435.1469441482      5.78E-04 Normal BFGS step
   53    -435.1469446997      1.50E-04 Normal BFGS step
   54    -435.1469451375      1.67E-04 Normal BFGS step
   55    -435.1469454516      3.45E-04 Normal BFGS step
   56    -435.1469455931      6.52E-05 Normal BFGS step
   57    -435.1469456499      6.69E-05 Normal BFGS step
   58    -435.1469456716      7.97E-05 Normal BFGS step
   59    -435.1469456938      7.01E-05 Normal BFGS step
   60    -435.1469457210      7.26E-05 Normal BFGS step
   61    -435.1469457628      7.38E-05 Normal BFGS step
   62    -435.1469458326      7.17E-05 Normal BFGS step
   63    -435.1469459379      5.89E-05 Normal BFGS step
   64    -435.1469460072      8.20E-05 Normal BFGS step
   65    -435.1469459775      7.86E-04 Line search: overstep
   66    -435.1469460723      8.85E-05 Normal BFGS step
   67    -435.1469461046      6.14E-05 Normal BFGS step
   68    -435.1469461397      3.63E-05 Normal BFGS step
   69    -435.1469461485      2.49E-05 Normal BFGS step
   70    -435.1469461591      2.12E-05 Normal BFGS step
   71    -435.1469461625      1.51E-05 Normal BFGS step
   72    -435.1469461642      4.40E-06 Normal BFGS step
   73    -435.1469461645      1.62E-06 Normal BFGS step
   74    -435.1469461645      6.20E-07 Normal BFGS step
   75    -435.1469461645      2.48E-07 Normal BFGS step
   76    -435.1469461645      9.86E-08 Convergence criterion met
 ---------------------------------------
 <S^2> = 0.7529
 SCF time:  CPU 12.62 s  wall 17.25 s
 SCF   energy in the final basis set = -435.1469461645
 Total energy in the final basis set = -435.1469461645
================================================================================
|                                                                              |
|                                 A D C  M A N                                 |
|                                                                              |
 ------------------------------------------------------------------------------ 
|                                                                              |
| Components:                                                                  |
|                                                                              |
| - libvmm - 1.2-release                                                       |
|   Authors:                                                                   |
|   Evgeny Epifanovsky, Ilya Kaliman                                           |
|                                                                              |
| - libtensor - 2.4-trunk                                                      |
|   Authors:                                                                   |
|   Evgeny Epifanovsky, Michael Wormit, Dmitry Zuev, Sam Manzer                |
|                                                                              |
| - libwfa - 1.1-beta                                                          |
|   Authors:                                                                   |
|   Felix Plasser, Stefanie Baeppler, Benjamin Thomitzni, Michael Wormit       |
|                                                                              |
| - libadc - 1.0-beta                                                          |
|   Authors:                                                                   |
|   Michael Wormit, Philipp H. P. Harbach, Caroline Krauter, Dirk Rehn,        |
|   Matthias Schneider, Jan Wenzel                                             |
|                                                                              |
| - adcman - 2.4-beta                                                          |
|   Authors:                                                                   |
|   Michael Wormit, Philipp H. P. Harbach, Caroline Krauter, Dirk Rehn,        |
|   Jan Wenzel, Andreas Dreuw                                                  |
|                                                                              |
| Authors of earlier versions of ADCMAN:                                       |
| Andreas Dreuw, Jan Hendrik Starcke, Dirk Rehn, Michael Wormit                |
|                                                                              |
================================================================================

 
 Alpha MOs, Unrestricted
 -- Occupied --                  
-26.741 -26.741 -26.741 -26.610 -11.955  -2.166  -2.053  -2.052
  1 A     2 A     3 A     4 A     5 A     6 A     7 A     8 A                  
 -1.863  -1.322  -1.233  -1.233  -1.182  -1.068  -1.067  -1.040
  9 A    10 A    11 A    12 A    13 A    14 A    15 A    16 A                  
 -1.035  -1.023  -1.014  -0.923  -0.920
 17 A    18 A    19 A    20 A    21 A                                          
 -- Virtual --                   
 -0.263   0.114   0.166   0.167   0.356   0.400   0.402   0.442
 22 A    23 A    24 A    25 A    26 A    27 A    28 A    29 A                  
  0.957   1.009   1.013   1.028   1.045   1.060   1.174   1.211
 30 A    31 A    32 A    33 A    34 A    35 A    36 A    37 A                  
  1.252   1.291   1.292   1.313   1.343   1.353   1.403   1.522
 38 A    39 A    40 A    41 A    42 A    43 A    44 A    45 A                  
  1.649   1.650   1.740   1.745   1.785   1.821   1.832   1.839
 46 A    47 A    48 A    49 A    50 A    51 A    52 A    53 A                  
  1.865   1.883   1.891   1.905   1.935   2.008   2.008   2.093
 54 A    55 A    56 A    57 A    58 A    59 A    60 A    61 A                  
  2.426   2.597   2.599   2.648   2.924   2.924   3.171   3.172
 62 A    63 A    64 A    65 A    66 A    67 A    68 A    69 A                  
  3.280   3.680   4.275   4.568   4.569   5.961
 70 A    71 A    72 A    73 A    74 A    75 A                                  
 
 Beta MOs, Unrestricted
 -- Occupied --                  
-26.741 -26.741 -26.741 -26.562 -11.955  -2.166  -2.053  -2.052
  1 A     2 A     3 A     4 A     5 A     6 A     7 A     8 A                  
 -1.670  -1.322  -1.233  -1.233  -1.182  -1.067  -1.067  -1.035
  9 A    10 A    11 A    12 A    13 A    14 A    15 A    16 A                  
 -1.035  -1.014  -0.870  -0.868
 17 A    18 A    19 A    20 A                                                  
 -- Virtual --                   
 -0.263  -0.111   0.116   0.167   0.168   0.357   0.401   0.402
 21 A    22 A    23 A    24 A    25 A    26 A    27 A    28 A                  
  0.447   0.974   1.013   1.013   1.040   1.064   1.074   1.222
 29 A    30 A    31 A    32 A    33 A    34 A    35 A    36 A                  
  1.254   1.259   1.292   1.293   1.313   1.363   1.408   1.448
 37 A    38 A    39 A    40 A    41 A    42 A    43 A    44 A                  
  1.535   1.651   1.651   1.745   1.748   1.785   1.839   1.841
 45 A    46 A    47 A    48 A    49 A    50 A    51 A    52 A                  
  1.870   1.906   1.939   1.948   1.951   1.959   2.009   2.017
 53 A    54 A    55 A    56 A    57 A    58 A    59 A    60 A                  
  2.093   2.429   2.598   2.599   2.654   2.924   2.924   3.171
 61 A    62 A    63 A    64 A    65 A    66 A    67 A    68 A                  
  3.172   3.284   3.716   4.275   4.568   4.569   5.964
 69 A    70 A    71 A    72 A    73 A    74 A    75 A                          
 

--------------------------------------------------------------------------------
                                   HF Summary                                   
--------------------------------------------------------------------------------
  Energy:                                                 -435.1469461645 a.u.
  Dip. moment [a.u.]:                  [ -54.490034,  181.230772,    0.306974]
  Total dipole [Debye]:                                             481.014115
  <r^2> [a.u.]:                        [ 164.568397,  943.833301,   95.449821]
  Total <r^2> [a.u.]:                                              1203.851519
--------------------------------------------------------------------------------

--------------------------------------------------------------------------------
                                 MP(2) Summary                                  
--------------------------------------------------------------------------------
  Energy contribution:                                      -0.7466146609 a.u.
  Total energy:                                           -435.8935608254 a.u.
  Dip. moment [a.u.]:                  [ -54.428410,  181.390493,    0.250890]
  Total dipole [Debye]:                                             481.357656
  <r^2> [a.u.]:                        [ 164.207509,  945.688451,   95.235794]
  Total <r^2> [a.u.]:                                              1205.131754
--------------------------------------------------------------------------------
  Starting Davidson ... 
--------------------------------------------------------------------------------
   It NVec Conv  Avg. Norm  Max. Norm  Conv. states           Remark
--------------------------------------------------------------------------------
        20    0  2.082e-01  1.152e+00 10.9425 n n n n n n n n Guess.
    1   40    0  4.548e-02  6.843e-01 10.7789 n n n n n n n n 
    2   60    0  1.011e-02  1.197e-01 10.7776 n n n n n n n n 
    3   80    0  2.562e-03  3.576e-02 10.7776 n n n n n n n n 
    4  100    0  1.531e-03  2.524e-02 10.7776 n n n n n n n n 
    5   40    0  1.010e-03  1.622e-02 10.7776 n n n n n n n n Subspace collapsed.
    6   60    0  1.214e-03  1.995e-02 10.7776 n n n n n n n n 
    7   80    0  8.065e-03  1.579e-01 10.7776 n n n n n n n n 
    8  100    2  4.297e-03  7.648e-02 10.7776 y y n n n n n n 
    9   40    6  1.789e-03  3.011e-02 10.7776 y y n y y n n y Subspace collapsed.
   10   60    8  1.118e-03  1.820e-02 10.7776 y y n y y y y y 
   11   80    9  1.089e-03  1.808e-02 10.7776 y y y y y y y y 
   12  100   12  1.522e-03  2.478e-02 10.7776 y y y y y y y y 
   13   40   15  8.510e-04  1.342e-02 10.7776 y y y y y y y y Subspace collapsed.
   14   60   16  7.767e-04  1.145e-02 10.7776 y y y y y y y y 
   15   80   16  8.743e-04  1.226e-02 10.7776 y y y y y y y y 
   16  100   16  1.413e-03  1.901e-02 10.7776 y y y y y y y y 
   17   38   17  6.911e-04  9.099e-03 10.7776 y y y y y y y y Subspace collapsed.
   18   56   17  5.767e-04  7.667e-03 10.7776 y y y y y y y y 
   19   58   17  5.694e-04  7.586e-03 10.7776 y y y y y y y y 
   20   59   17  5.690e-04  7.579e-03 10.7776 y y y y y y y y 
   21   59   17  5.690e-04  7.579e-03 10.7776 y y y y y y y y 
   22   79   17  5.463e-04  7.174e-03 10.7776 y y y y y y y y 
   23   79   17  5.463e-04  7.174e-03 10.7776 y y y y y y y y 
   24   79   17  5.463e-04  7.174e-03 10.7776 y y y y y y y y 
   25   99   17  6.822e-04  9.241e-03 10.7776 y y y y y y y y 
   26   99   17  6.822e-04  9.241e-03 10.7776 y y y y y y y y 
   27  100   17  6.825e-04  9.206e-03 10.7776 y y y y y y y y 
   28   21   17  6.815e-04  9.193e-03 10.7776 y y y y y y y y Subspace collapsed.
   29   22   17  6.813e-04  9.189e-03 10.7776 y y y y y y y y 
   30   24   17  6.756e-04  9.202e-03 10.7776 y y y y y y y y 
   31   35   17  4.500e-04  6.120e-03 10.7776 y y y y y y y y 
   32   46   17  4.704e-04  6.098e-03 10.7776 y y y y y y y y 
   33   57   17  5.047e-04  7.995e-03 10.7776 y y y y y y y y 
   34   68   17  7.241e-04  1.178e-02 10.7776 y y y y y y y y 
   35   79   17  1.143e-03  2.071e-02 10.7776 y y y y y y y y 
   36   89   17  8.723e-04  1.668e-02 10.7776 y y y y y y y y 
   37   95   17  1.200e-03  2.122e-02 10.7776 y y y y y y y y 
   38  100   17  5.054e-04  8.762e-03 10.7776 y y y y y y y y 
   39   25   17  2.843e-04  4.938e-03 10.7776 y y y y y y y y Subspace collapsed.
   40   25   17  2.843e-04  4.938e-03 10.7776 y y y y y y y y 
   41   28   17  2.859e-04  4.968e-03 10.7776 y y y y y y y y 
   42   28   17  2.859e-04  4.968e-03 10.7776 y y y y y y y y 
   43   28   17  2.859e-04  4.968e-03 10.7776 y y y y y y y y 
   44   48   17  1.870e-04  3.237e-03 10.7776 y y y y y y y y 
   45   52   17  1.514e-04  2.631e-03 10.7776 y y y y y y y y 
   46   56   17  1.344e-04  2.354e-03 10.7776 y y y y y y y y 
   47   60   17  1.649e-04  2.945e-03 10.7776 y y y y y y y y 
   48   64   17  1.592e-04  2.888e-03 10.7776 y y y y y y y y 
   49   68   17  1.284e-04  2.364e-03 10.7776 y y y y y y y y 
   50   72   17  7.535e-05  1.394e-03 10.7776 y y y y y y y y 
   51   76   17  5.749e-05  1.068e-03 10.7776 y y y y y y y y 
   52   80   17  5.214e-05  9.758e-04 10.7776 y y y y y y y y 
   53   84   17  4.123e-05  7.721e-04 10.7776 y y y y y y y y 
   54   88   17  4.060e-05  7.598e-04 10.7776 y y y y y y y y 
   55   92   17  5.017e-05  9.496e-04 10.7776 y y y y y y y y 
   56   96   17  3.629e-05  6.904e-04 10.7776 y y y y y y y y 
   57  100   17  2.453e-05  4.652e-04 10.7776 y y y y y y y y 
   58   24   17  1.101e-05  2.098e-04 10.7776 y y y y y y y y Subspace collapsed.
   59   24   17  1.101e-05  2.098e-04 10.7776 y y y y y y y y 
--------------------------------------------------------------------------------
  Davidson Summary: 
 ------------------------------------------------------------
  State  0: excitation energy =  10.7776 a.u.   (converged)
  State  1: excitation energy =  10.8470 a.u.   (converged)
  State  2: excitation energy =  11.1904 a.u.   (converged)
  State  3: excitation energy =  11.1960 a.u.   (converged)
  State  4: excitation energy =  11.2048 a.u.   (converged)
  State  5: excitation energy =  11.2060 a.u.   (converged)
  State  6: excitation energy =  11.2589 a.u.   (converged)
  State  7: excitation energy =  11.2808 a.u.   (converged)
  State  8: excitation energy =  11.2823 a.u.   (converged)
  State  9: excitation energy =  11.5159 a.u.   (converged)
  State 10: excitation energy =  11.5658 a.u.   (converged)
  State 11: excitation energy =  11.5663 a.u.   (converged)
  State 12: excitation energy =  11.5686 a.u.   (converged)
  State 13: excitation energy =  11.5831 a.u.   (converged)
  State 14: excitation energy =  11.5836 a.u.   (converged)
  State 15: excitation energy =  11.6180 a.u.   (converged)
  State 16: excitation energy =  11.6461 a.u.   (converged)
  State 17: excitation energy =  12.2236 a.u.   (not converged)
  State 18: excitation energy =  12.2241 a.u.   (not converged)
  State 19: excitation energy =  12.2281 a.u.   (not converged)
 ------------------------------------------------------------


--------------------------------------------------------------------------------
                             Excited State Summary
--------------------------------------------------------------------------------

  Excited state  1 (A)                                             [converged]
  ----------------------------------------------------------------------------
  Term symbol:  2 (-) A                                     R^2 =  5.19941e-14

  Total energy:                                           -425.1159680283 a.u.
  Excitation energy:                                             293.273215 eV

  Osc. strength:                                                      0.000000
  Trans. dip. moment [a.u.]:           [   0.000014,    0.000034,   -0.000010]
  <i|r^2|0> [a.u.]:                    [  -0.000021,    0.000388,    0.000012]

  V1^2 = 0.9563, V2^2 = 0.0437

  Important amplitudes:
     core i     occ j      vir a      vir b          v   
    ------------------------------------------------------
     5 (A) A              22 (A) A                 0.6521
     5 (A) B              21 (A) B                -0.6517
    ------------------------------------------------------
  ----------------------------------------------------------------------------


  Excited state  2 (A)                                             [converged]
  ----------------------------------------------------------------------------
  Term symbol:  3 (-) A                                     R^2 =  8.34765e-14

  Total energy:                                           -425.0465298880 a.u.
  Excitation energy:                                             295.162723 eV

  Osc. strength:                                                      0.093110
  Trans. dip. moment [a.u.]:           [   0.038978,    0.100663,   -0.034981]
  <i|r^2|0> [a.u.]:                    [  -0.060373,    1.147520,    0.039118]

  V1^2 = 0.9510, V2^2 = 0.0490

  Important amplitudes:
     core i     occ j      vir a      vir b          v   
    ------------------------------------------------------
     5 (A) B              21 (A) B                 0.6642
     5 (A) A              22 (A) A                 0.6639
    ------------------------------------------------------
  ----------------------------------------------------------------------------


  Excited state  3 (A)                                             [converged]
  ----------------------------------------------------------------------------
  Term symbol:  4 (-) A                                     R^2 =  1.03386e-13

  Total energy:                                           -424.7031420687 a.u.
  Excitation energy:                                             304.506781 eV

  Osc. strength:                                                      0.000000
  Trans. dip. moment [a.u.]:           [  -0.000036,   -0.000112,    0.000042]
  <i|r^2|0> [a.u.]:                    [   0.000098,   -0.001201,   -0.000004]

  V1^2 = 0.9308, V2^2 = 0.0692

  Important amplitudes:
     core i     occ j      vir a      vir b          v   
    ------------------------------------------------------
     5 (A) A              23 (A) A                 0.6060
     5 (A) B              23 (A) B                -0.6033
    ------------------------------------------------------
  ----------------------------------------------------------------------------


  Excited state  4 (A)                                             [converged]
  ----------------------------------------------------------------------------
  Term symbol:  5 (-) A                                     R^2 =  5.19805e-14

  Total energy:                                           -424.6975735375 a.u.
  Excitation energy:                                             304.658308 eV

  Osc. strength:                                                      0.000047
  Trans. dip. moment [a.u.]:           [  -0.002067,    0.001115,    0.000880]
  <i|r^2|0> [a.u.]:                    [   0.003632,    0.012673,   -0.000902]

  V1^2 = 0.8536, V2^2 = 0.1464

  Important amplitudes:
     core i     occ j      vir a      vir b          v   
    ------------------------------------------------------
     5 (A) B              22 (A) B                -0.9019
     5 (A) B              27 (A) B                -0.1035
    ------------------------------------------------------
  ----------------------------------------------------------------------------


  Excited state  5 (A)                                             [converged]
  ----------------------------------------------------------------------------
  Term symbol:  6 (-) A                                     R^2 =  2.95349e-14

  Total energy:                                           -424.6887474603 a.u.
  Excitation energy:                                             304.898478 eV

  Osc. strength:                                                      0.000003
  Trans. dip. moment [a.u.]:           [   0.000551,   -0.000298,   -0.000234]
  <i|r^2|0> [a.u.]:                    [  -0.000970,   -0.003382,    0.000241]

  V1^2 = 0.9473, V2^2 = 0.0527

  Important amplitudes:
     core i     occ j      vir a      vir b          v   
    ------------------------------------------------------
     5 (A) A              24 (A) A                 0.4960
     5 (A) B              25 (A) B                -0.4873
    ------------------------------------------------------
  ----------------------------------------------------------------------------


  Excited state  6 (A)                                             [converged]
  ----------------------------------------------------------------------------
  Term symbol:  7 (-) A                                     R^2 =  4.38383e-14

  Total energy:                                           -424.6875481801 a.u.
  Excitation energy:                                             304.931112 eV

  Osc. strength:                                                      0.000000
  Trans. dip. moment [a.u.]:           [  -0.000032,    0.000019,    0.000021]
  <i|r^2|0> [a.u.]:                    [   0.000057,    0.000219,   -0.000021]

  V1^2 = 0.9517, V2^2 = 0.0483

  Important amplitudes:
     core i     occ j      vir a      vir b          v   
    ------------------------------------------------------
     5 (A) A              25 (A) A                -0.5026
     5 (A) B              24 (A) B                -0.4955
    ------------------------------------------------------
  ----------------------------------------------------------------------------


  Excited state  7 (A)                                             [converged]
  ----------------------------------------------------------------------------
  Term symbol:  8 (-) A                                     R^2 =  2.36240e-13

  Total energy:                                           -424.6347080188 a.u.
  Excitation energy:                                             306.368966 eV

  Osc. strength:                                                      0.026182
  Trans. dip. moment [a.u.]:           [   0.019955,    0.052018,   -0.019599]
  <i|r^2|0> [a.u.]:                    [  -0.050179,    0.562538,    0.002651]

  V1^2 = 0.9200, V2^2 = 0.0800

  Important amplitudes:
     core i     occ j      vir a      vir b          v   
    ------------------------------------------------------
     5 (A) B              23 (A) B                -0.6395
     5 (A) A              23 (A) A                -0.6353
    ------------------------------------------------------
  ----------------------------------------------------------------------------


  Excited state  8 (A)                                             [converged]
  ----------------------------------------------------------------------------
  Term symbol:  9 (-) A                                     R^2 =  8.12078e-14

  Total energy:                                           -424.6127320221 a.u.
  Excitation energy:                                             306.966963 eV

  Osc. strength:                                                      0.114352
  Trans. dip. moment [a.u.]:           [  -0.098474,    0.055499,    0.049275]
  <i|r^2|0> [a.u.]:                    [   0.175246,    0.628260,   -0.049930]

  V1^2 = 0.9425, V2^2 = 0.0575

  Important amplitudes:
     core i     occ j      vir a      vir b          v   
    ------------------------------------------------------
     5 (A) A              24 (A) A                -0.5491
     5 (A) B              25 (A) B                -0.5455
    ------------------------------------------------------
  ----------------------------------------------------------------------------


  Excited state  9 (A)                                             [converged]
  ----------------------------------------------------------------------------
  Term symbol:  10 (-) A                                    R^2 =  5.21791e-14

  Total energy:                                           -424.6112601637 a.u.
  Excitation energy:                                             307.007015 eV

  Osc. strength:                                                      0.114242
  Trans. dip. moment [a.u.]:           [  -0.060981,   -0.013928,   -0.106189]
  <i|r^2|0> [a.u.]:                    [   0.108781,   -0.156407,    0.093143]

  V1^2 = 0.9425, V2^2 = 0.0575

  Important amplitudes:
     core i     occ j      vir a      vir b          v   
    ------------------------------------------------------
     5 (A) A              25 (A) A                -0.5496
     5 (A) B              24 (A) B                 0.5426
    ------------------------------------------------------
  ----------------------------------------------------------------------------


  Excited state 10 (A)                                             [converged]
  ----------------------------------------------------------------------------
  Term symbol:  11 (-) A                                    R^2 =  4.49998e-13

  Total energy:                                           -424.3776815263 a.u.
  Excitation energy:                                             313.363013 eV

  Osc. strength:                                                      0.000000
  Trans. dip. moment [a.u.]:           [  -0.000005,   -0.000019,    0.000006]
  <i|r^2|0> [a.u.]:                    [   0.000009,   -0.000211,   -0.000005]

  V1^2 = 0.9200, V2^2 = 0.0800

  Important amplitudes:
     core i     occ j      vir a      vir b          v   
    ------------------------------------------------------
     5 (A) B              26 (A) B                 0.5963
     5 (A) A              26 (A) A                -0.5902
    ------------------------------------------------------
  ----------------------------------------------------------------------------


  Excited state 11 (A)                                             [converged]
  ----------------------------------------------------------------------------
  Term symbol:  12 (-) A                                    R^2 =  2.99117e-13

  Total energy:                                           -424.3277481479 a.u.
  Excitation energy:                                             314.721769 eV

  Osc. strength:                                                      0.000118
  Trans. dip. moment [a.u.]:           [  -0.003251,    0.001664,    0.001400]
  <i|r^2|0> [a.u.]:                    [   0.005755,    0.018741,   -0.001368]

  V1^2 = 0.8970, V2^2 = 0.1030

  Important amplitudes:
     core i     occ j      vir a      vir b          v   
    ------------------------------------------------------
     5 (A) A              27 (A) A                -0.5275
     5 (A) A              24 (A) A                 0.4658
    ------------------------------------------------------
  ----------------------------------------------------------------------------


  Excited state 12 (A)                                             [converged]
  ----------------------------------------------------------------------------
  Term symbol:  13 (-) A                                    R^2 =  1.93237e-13

  Total energy:                                           -424.3272940144 a.u.
  Excitation energy:                                             314.734126 eV

  Osc. strength:                                                      0.000002
  Trans. dip. moment [a.u.]:           [  -0.000305,   -0.000394,   -0.000049]
  <i|r^2|0> [a.u.]:                    [   0.000413,   -0.004573,   -0.000086]

  V1^2 = 0.8971, V2^2 = 0.1029

  Important amplitudes:
     core i     occ j      vir a      vir b          v   
    ------------------------------------------------------
     5 (A) A              28 (A) A                -0.4978
     5 (A) B              28 (A) B                 0.4871
    ------------------------------------------------------
  ----------------------------------------------------------------------------


  Excited state 13 (A)                                             [converged]
  ----------------------------------------------------------------------------
  Term symbol:  14 (-) A                                    R^2 =  2.26645e-13

  Total energy:                                           -424.3249180847 a.u.
  Excitation energy:                                             314.798779 eV

  Osc. strength:                                                      0.023537
  Trans. dip. moment [a.u.]:           [   0.019858,    0.049171,   -0.015485]
  <i|r^2|0> [a.u.]:                    [  -0.014965,    0.575782,    0.033708]

  V1^2 = 0.9185, V2^2 = 0.0815

  Important amplitudes:
     core i     occ j      vir a      vir b          v   
    ------------------------------------------------------
     5 (A) A              26 (A) A                -0.6457
     5 (A) B              26 (A) B                -0.6436
    ------------------------------------------------------
  ----------------------------------------------------------------------------


  Excited state 14 (A)                                             [converged]
  ----------------------------------------------------------------------------
  Term symbol:  15 (-) A                                    R^2 =  2.30309e-13

  Total energy:                                           -424.3104304107 a.u.
  Excitation energy:                                             315.193008 eV

  Osc. strength:                                                      0.033698
  Trans. dip. moment [a.u.]:           [   0.053510,   -0.029464,   -0.025147]
  <i|r^2|0> [a.u.]:                    [  -0.095082,   -0.332106,    0.023881]

  V1^2 = 0.9005, V2^2 = 0.0995

  Important amplitudes:
     core i     occ j      vir a      vir b          v   
    ------------------------------------------------------
     5 (A) B              27 (A) B                 0.5695
     5 (A) A              27 (A) A                 0.5169
    ------------------------------------------------------
  ----------------------------------------------------------------------------


  Excited state 15 (A)                                             [converged]
  ----------------------------------------------------------------------------
  Term symbol:  16 (-) A                                    R^2 =  3.82472e-13

  Total energy:                                           -424.3099785908 a.u.
  Excitation energy:                                             315.205303 eV

  Osc. strength:                                                      0.033922
  Trans. dip. moment [a.u.]:           [   0.031478,    0.007827,    0.057798]
  <i|r^2|0> [a.u.]:                    [  -0.057085,    0.086712,   -0.051898]

  V1^2 = 0.9007, V2^2 = 0.0993

  Important amplitudes:
     core i     occ j      vir a      vir b          v   
    ------------------------------------------------------
     5 (A) A              28 (A) A                 0.5447
     5 (A) B              28 (A) B                 0.5420
    ------------------------------------------------------
  ----------------------------------------------------------------------------


  Excited state 16 (A)                                             [converged]
  ----------------------------------------------------------------------------
  Term symbol:  17 (-) A                                    R^2 =  3.55717e-13

  Total energy:                                           -424.2755986195 a.u.
  Excitation energy:                                             316.140830 eV

  Osc. strength:                                                      0.000111
  Trans. dip. moment [a.u.]:           [  -0.001173,   -0.003328,    0.001388]
  <i|r^2|0> [a.u.]:                    [   0.003953,   -0.035660,    0.000657]

  V1^2 = 0.8939, V2^2 = 0.1061

  Important amplitudes:
     core i     occ j      vir a      vir b          v   
    ------------------------------------------------------
     5 (A) A              29 (A) A                 0.6131
     5 (A) B              29 (A) B                -0.4889
    ------------------------------------------------------
  ----------------------------------------------------------------------------


  Excited state 17 (A)                                             [converged]
  ----------------------------------------------------------------------------
  Term symbol:  18 (-) A                                    R^2 =  7.24880e-12

  Total energy:                                           -424.2474509175 a.u.
  Excitation energy:                                             316.906768 eV

  Osc. strength:                                                      0.013814
  Trans. dip. moment [a.u.]:           [   0.013493,    0.037177,   -0.014663]
  <i|r^2|0> [a.u.]:                    [  -0.039341,    0.404199,   -0.002596]

  V1^2 = 0.8971, V2^2 = 0.1029

  Important amplitudes:
     core i     occ j      vir a      vir b          v   
    ------------------------------------------------------
     5 (A) B              29 (A) B                -0.6763
     5 (A) A              29 (A) A                -0.5565
    ------------------------------------------------------
  ----------------------------------------------------------------------------


  Excited state 18 (A)                                         [not converged]
  ----------------------------------------------------------------------------
  Term symbol:  19 (-) A                                    R^2 =  6.35215e-05

  Total energy:                                           -423.6699957426 a.u.
  Excitation energy:                                             332.620122 eV


  V1^2 = 0.8707, V2^2 = 0.1293

  Important amplitudes:
     core i     occ j      vir a      vir b          v   
    ------------------------------------------------------
     5 (A) A              32 (A) A                 0.5451
     5 (A) B              32 (A) B                -0.5147
    ------------------------------------------------------
  ----------------------------------------------------------------------------


  Excited state 19 (A)                                         [not converged]
  ----------------------------------------------------------------------------
  Term symbol:  20 (-) A                                    R^2 =  2.18075e-05

  Total energy:                                           -423.6694721493 a.u.
  Excitation energy:                                             332.634370 eV


  V1^2 = 0.8706, V2^2 = 0.1294

  Important amplitudes:
     core i     occ j      vir a      vir b          v   
    ------------------------------------------------------
     5 (A) B              31 (A) B                 0.5299
     5 (A) A              31 (A) A                 0.4841
    ------------------------------------------------------
  ----------------------------------------------------------------------------


  Excited state 20 (A)                                         [not converged]
  ----------------------------------------------------------------------------
  Term symbol:  21 (-) A                                    R^2 =  2.09752e-04

  Total energy:                                           -423.6655075537 a.u.
  Excitation energy:                                             332.742252 eV


  V1^2 = 0.8705, V2^2 = 0.1295

  Important amplitudes:
     core i     occ j      vir a      vir b          v   
    ------------------------------------------------------
     5 (A) A              32 (A) A                -0.4888
     5 (A) B              32 (A) B                -0.4855
    ------------------------------------------------------
  ----------------------------------------------------------------------------


--------------------------------------------------------------------------------
  Time of ADC calculation:  CPU 1194.02 s  wall 1230.85 s
================================================================================
 
 --------------------------------------------------------------
 
                    Orbital Energies (a.u.)
 --------------------------------------------------------------
 
 Alpha MOs
 -- Occupied --
-26.741 -26.741 -26.741 -26.610 -11.955  -2.166  -2.053  -2.052
 -1.863  -1.322  -1.233  -1.233  -1.182  -1.068  -1.067  -1.040
 -1.035  -1.023  -1.014  -0.923  -0.920
 -- Virtual --
 -0.263   0.114   0.166   0.167   0.356   0.400   0.402   0.442
  0.957   1.009   1.013   1.028   1.045   1.060   1.174   1.211
  1.252   1.291   1.292   1.313   1.343   1.353   1.403   1.522
  1.649   1.650   1.740   1.745   1.785   1.821   1.832   1.839
  1.865   1.883   1.891   1.905   1.935   2.008   2.008   2.093
  2.426   2.597   2.599   2.648   2.924   2.924   3.171   3.172
  3.280   3.680   4.275   4.568   4.569   5.961
 
 Beta MOs
 -- Occupied --
-26.741 -26.741 -26.741 -26.562 -11.955  -2.166  -2.053  -2.052
 -1.670  -1.322  -1.233  -1.233  -1.182  -1.067  -1.067  -1.035
 -1.035  -1.014  -0.870  -0.868
 -- Virtual --
 -0.263  -0.111   0.116   0.167   0.168   0.357   0.401   0.402
  0.447   0.974   1.013   1.013   1.040   1.064   1.074   1.222
  1.254   1.259   1.292   1.293   1.313   1.363   1.408   1.448
  1.535   1.651   1.651   1.745   1.748   1.785   1.839   1.841
  1.870   1.906   1.939   1.948   1.951   1.959   2.009   2.017
  2.093   2.429   2.598   2.599   2.654   2.924   2.924   3.171
  3.172   3.284   3.716   4.275   4.568   4.569   5.964
 --------------------------------------------------------------
 
          Ground-State Mulliken Net Atomic Charges

     Atom                 Charge (a.u.)    Spin (a.u.)
  --------------------------------------------------------
      1 C                     1.271239      -0.005288
      2 F                    -0.098448       0.000609
      3 F                    -0.098562       0.000587
      4 F                     0.020695       1.003929
      5 F                    -0.094925       0.000163
  --------------------------------------------------------
  Sum of atomic charges =     1.000000
  Sum of spin   charges =     1.000000

 -----------------------------------------------------------------
                    Cartesian Multipole Moments
 -----------------------------------------------------------------
    Charge (ESU x 10^10)
                 4.8032
    Dipole Moment (Debye)
         X      -2.2211      Y      14.3317      Z      -1.1422
       Tot      14.5477
    Quadrupole Moments (Debye-Ang)
        XX     -19.4102     XY      -6.3680     YY      23.1922
        XZ       0.0861     YZ      -3.8279     ZZ     -20.6283
    Octopole Moments (Debye-Ang^2)
       XXX      41.6416    XXY     -46.3129    XYY      -3.7554
       YYY     -11.3006    XXZ       1.1955    XYZ       0.6110
       YYZ     -12.4505    XZZ      13.3673    YZZ     -48.4010
       ZZZ       0.1733
    Hexadecapole Moments (Debye-Ang^3)
      XXXX    -129.5502   XXXY      91.0350   XXYY    -152.8849
      XYYY      40.4036   YYYY    -391.9458   XXXZ       0.9190
      XXYZ       5.6262   XYYZ       3.3515   YYYZ     -29.5208
      XXZZ     -32.6402   XYZZ      28.6246   YYZZ    -146.2899
      XZZZ       3.5990   YZZZ      12.1126   ZZZZ     -75.5873
 -----------------------------------------------------------------
Archival summary:
1\1\tp-linux1\SP\HF\6-31G*\41(1+,2)\thomas\WedMar2220:51:432017WedMar2220:51:432017\0\\#,HF,6-31G*,\\1,2\C\F,1,1.22696\F,1,1.22812,2,116.216\F,1,1.22832,2,116.214,3,142.044,0\F,1,2.60565,2,80.467,3,70.9371,0\\HF=-435.146946\\@

 Total job time:  1249.90s(wall), 1208.23s(cpu) 
 Wed Mar 22 20:51:43 2017

        *************************************************************
        *                                                           *
        *  Thank you very much for using Q-Chem.  Have a nice day.  *
        *                                                           *
        *************************************************************


0 sent ACK to 0 
now end server 0 ... 
cleanup process ... done
