
Running Job 1 of 1 ddtraj1t44.inp
qchem ddtraj1t44.inp_15638.0 /scratch/qchem/qchem15638/ 1
/mnt/software/qchem/bin/mpi/mpirun_qchem -machinefile /mnt/software/qchem/bin/mpi/machines -np 1 /mnt/software/qchem/exe/qcprog.exe ddtraj1t44.inp_15638.0 /scratch/qchem/qchem15638/

Process 0 of 1 is on tp-linux1 - thread support 0
initial socket setup ...start
initial socket setup ...done 
now start server 0 ... 

cmd = ssh tp-linux1 /mnt/software/qchem/bin/get_hostid 1365007209 > /scratch/qchem/qchem15638/lic.dat
                  Welcome to Q-Chem
     A Quantum Leap Into The Future Of Chemistry


 Q-Chem 4.3, Q-Chem, Inc., Pleasanton, CA (2015)

 Y. Shao,  Z. Gan,  E. Epifanovsky,  A. T. B. Gilbert,  M. Wormit,  
 J. Kussmann,  A. W. Lange,  A. Behn,  J. Deng,  X. Feng,  D. Ghosh,  
 M. Goldey,  P. R. Horn,  L. D. Jacobson,  I. Kaliman,  R. Z. Khaliullin,  
 T. Kus,  A. Landau,  J. Liu,  E. I. Proynov,  Y. M. Rhee,  R. M. Richard,  
 M. A. Rohrdanz,  R. P. Steele,  E. J. Sundstrom,  H. L. Woodcock III,  
 P. M. Zimmerman,  D. Zuev,  B. Albrecht,  E. Alguire,  B. Austin,  
 S. A. Baeppler,  G. J. O. Beran,  Y. A. Bernard,  E. Berquist,  
 K. Brandhorst,  K. B. Bravaya,  S. T. Brown,  D. Casanova,  C.-M. Chang,  
 Y. Chen,  S. H. Chien,  K. D. Closser,  D. L. Crittenden,  M. Diedenhofen,  
 R. A. DiStasio Jr.,  H. Do,  A. D. Dutoi,  R. G. Edgar,  P.-T. Fang,  
 S. Fatehi,  Q. Feng,  L. Fusti-Molnar,  A. Ghysels,  
 A. Golubeva-Zadorozhnaya,  J. Gomes,  A. Gunina,  M. W. D. Hanson-Heine,  
 P. H. P. Harbach,  A. W. Hauser,  E. G. Hohenstein,  Z. C. Holden,  K. Hui,  
 T.-C. Jagau,  H. Ji,  B. Kaduk,  K. Khistyaev,  Jaehoon Kim,  Jihan Kim,  
 R. A. King,  P. Klunzinger,  D. Kosenkov,  T. Kowalczyk,  C. M. Krauter,  
 K. U. Lao,  A. Laurent,  K. V. Lawler,  S. Lehtola,  S. V. Levchenko,  
 C. Y. Lin,  Y.-S. Lin,  F. Liu,  E. Livshits,  R. C. Lochan,  A. Luenser,  
 P. Manohar,  S. F. Manzer,  S.-P. Mao,  N. Mardirossian,  A. V. Marenich,  
 L. A. Martinez-Martinez,  S. A. Maurer,  N. J. Mayhall,  K. Nanda,  
 C. M. Oana,  R. Olivares-Amaya,  D. P. O'Neill,  J. A. Parkhill,  
 T. M. Perrine,  R. Peverati,  P. A. Pieniazek,  F. Plasser,  A. Prociuk,  
 D. R. Rehn,  E. Rosta,  N. J. Russ,  N. Sergueev,  S. M. Sharada,  
 S. Sharma,  D. W. Small,  A. Sodt,  T. Stauch,  T. Stein,  D. Stuck,  
 Y.-C. Su,  A. J. W. Thom,  T. Tsuchimochi,  L. Vogt,  O. Vydrov,  T. Wang,  
 M. A. Watson,  J. Wenzel,  A. White,  C. F. Williams,  V. Vanovschi,  
 S. Yeganeh,  S. R. Yost,  Z.-Q. You,  I. Y. Zhang,  X. Zhang,  Y. Zhao,  
 B. R. Brooks,  G. K. L. Chan,  D. M. Chipman,  C. J. Cramer,  
 W. A. Goddard III,  M. S. Gordon,  W. J. Hehre,  A. Klamt,  
 H. F. Schaefer III,  M. W. Schmidt,  C. D. Sherrill,  D. G. Truhlar,  
 A. Warshel,  X. Xu,  A. Aspuru-Guzik,  R. Baer,  A. T. Bell,  N. A. Besley,  
 J.-D. Chai,  A. Dreuw,  B. D. Dunietz,  T. R. Furlani,  S. R. Gwaltney,  
 C.-P. Hsu,  Y. Jung,  J. Kong,  D. S. Lambrecht,  W. Liang,  C. Ochsenfeld,  
 V. A. Rassolov,  L. V. Slipchenko,  J. E. Subotnik,  T. Van Voorhis,  
 J. M. Herbert,  A. I. Krylov,  P. M. W. Gill,  M. Head-Gordon

 Contributors to earlier versions of Q-Chem not listed above: 
 R. D. Adamson,  J. Baker,  E. F. C. Byrd,  A. K. Chakraborty,  C.-L. Cheng,  
 H. Dachsel,  R. J. Doerksen,  G. Hawkins,  A. Heyden,  S. Hirata,  
 G. Kedziora,  F. J. Keil,  C. Kelley,  P. P. Korambath,  W. Kurlancheek,  
 A. M. Lee,  M. S. Lee,  D. Liotard,  I. Lotan,  P. E. Maslen,  N. Nair,  
 D. Neuhauser,  R. Olson,  B. Peters,  J. Ritchie,  N. E. Schultz,  
 N. Shenvi,  A. C. Simmonett,  K. S. Thanthiriwatte,  Q. Wu,  W. Zhang

 Please cite Q-Chem as follows:
 Y. Shao et al., Mol. Phys. 113, 184-215 (2015)
 DOI: 10.1080/00268976.2014.952696

 Q-Chem 4.3.0 for Intel X86 Linux

 Parts of Q-Chem use Armadillo 5.200.1 (Boston Tea Smuggler).
 http://arma.sourceforge.net/

 Q-Chem begins on Wed Mar 22 18:16:14 2017  

Host: 
0

     Scratch files written to /scratch/qchem/qchem15638//
 Nov1815 1189b_ 19540  19532 5443   
 Parallel job on  1  processors
Processing $rem in /mnt/software/qchem/config/preferences.
 MEM_TOTAL  2000 

Checking the input file for inconsistencies... 	...done.

--------------------------------------------------------------
User input:
--------------------------------------------------------------
$comment
XAS calculation for valence excited states for CF4+ using cvs-adc(2) + 6-31G* basis set
job 1 - determination of HF orbitals
$end

$molecule
1 2
6  -0.53331  2.81828  -0.193438
9  0.685691  2.609218  -0.109492
9  -1.039054  3.549454  0.670505
9  -1.533206  0.068545  0.88935
9  -1.015653  2.875485  -1.328182
$end

$comment
cvs-adc(2) calculation
$end

$rem
mem_total 3000
mem_static 1500
sym_ignore true
method cvs-adc(2)
basis 6-31G*
ee_singlets 20
cc_rest_occ 5                  !only excitations from the lowest N orbitals
unrestricted  true
max_scf_cycles 200
SCF_ALGORITHM = DIIS_GDM
SCF_CONVERGENCE = 7
THRESH = 10
$end
--------------------------------------------------------------
 ----------------------------------------------------------------
             Standard Nuclear Orientation (Angstroms)
    I     Atom           X                Y                Z
 ----------------------------------------------------------------
    1      C      -0.5333100000     2.8182800000    -0.1934380000
    2      F       0.6856910000     2.6092180000    -0.1094920000
    3      F      -1.0390540000     3.5494540000     0.6705050000
    4      F      -1.5332060000     0.0685450000     0.8893500000
    5      F      -1.0156530000     2.8754850000    -1.3281820000
 ----------------------------------------------------------------
 Nuclear Repulsion Energy =   175.5413248498 hartrees
 There are       21 alpha and       20 beta electrons
 Requested basis set is 6-31G(d)
 There are 20 shells and 75 basis functions

 Total QAlloc Memory Limit   3000 MB
 Mega-Array Size      1467 MB
 MEM_STATIC part      1500 MB

                       Distance Matrix (Angstroms)
             C (  1)   F (  2)   F (  3)   F (  4)
   F (  2)  1.239644
   F (  3)  1.239673  2.113571
   F (  4)  3.119818  3.517984  3.522614
   F (  5)  1.234330  2.109662  2.109391  3.614446
 
 tim1(1): 
  0.000000000000000E+000
 tim1(2): 
  0.000000000000000E+000
 A cutoff of  1.0D-10 yielded    186 shell pairs
 There are      2860 function pairs
 
 -------------------------------------------------------
 OpenMP Integral Computing Module                       
 Release: version 1.0, May 2013, Q-Chem Inc. Pittsburgh 
 -------------------------------------------------------
 Integral Job Info:
 Integral job number is                      11
 Integral operator is                         1
 short-range coefficients                     0
 long-range coefficients              100000000
 Omega coefficients                           0
 if combine SR and LR in K                    0
 Integral screening is                        0
 Integral computing path is                   2
 max size of driver memory is            800000
 size of driver memory is                593474
 size of scratch memory is              2260544
 max col of scratch BK array               1296
 max len of scratch array in speh3          155
 max len of scratch index in speh4           18
 max int batch size is                      520
 min int batch size is                       52
 fixed nKL is                                52
 max L of basis functions is                  2
 order of int derivative is                   0
 number of shells is                         20
 number of basis is                          75
 number of cartesian basis is                75
 number of contracted shell pairs           186
 number of primitive shell pairs            933
 maxK2 (contraction) of shell pair           36
 max number of K2 of shell pair               1
 max number of CS2 of shell pair             32
 max number of PS2 of shell pair            192
 mem total for path MDJ                   17476
 -------------------------------------------------------
 Smallest overlap matrix eigenvalue = 3.79E-03

 Scale SEOQF with 1.000000e-01/1.000000e-01/1.000000e+00

 Standard Electronic Orientation quadrupole field applied
 Nucleus-field energy     =    -0.0000000065 hartrees
 Guess from superposition of atomic densities
 Warning:  Energy on first SCF cycle will be non-variational
 An unrestricted Hartree-Fock SCF calculation will be
 performed using Pulay DIIS + Geometric Direct Minimization
 SCF converges when RMS gradient is below 1.0E-07
 ---------------------------------------
  Cycle       Energy         DIIS Error
 ---------------------------------------
    1    -436.2534104504      8.83E-02
    2    -434.9603780975      1.80E-02
    3    -435.1171153743      8.81E-03 Done DIIS. Switching to GDM
    4    -435.1527061030      9.32E-03 Normal BFGS step
    5    -435.1538214259      9.60E-03 Normal BFGS step
    6    -435.1542283819      1.94E-03 Normal BFGS step
    7    -435.1542568431      1.92E-03 Normal BFGS step
    8    -435.1542646858      1.90E-03 Normal BFGS step
    9    -435.1542745687      1.86E-03 Normal BFGS step
   10    -435.1542958415      1.73E-03 Normal BFGS step
   11    -435.1543375696      1.95E-03 Normal BFGS step
   12    -435.1544043589      2.38E-03 Normal BFGS step
   13    -435.1544656111      1.75E-03 Normal BFGS step
   14    -435.1544918164      6.07E-04 Normal BFGS step
   15    -435.1544952169      1.48E-04 Normal BFGS step
   16    -435.1544954104      6.09E-05 Normal BFGS step
   17    -435.1544954332      1.44E-05 Normal BFGS step
   18    -435.1544954357      7.08E-06 Normal BFGS step
   19    -435.1544954359      6.99E-06 Normal BFGS step
   20    -435.1544954361      6.99E-06 Normal BFGS step
   21    -435.1544954362      6.99E-06 Normal BFGS step
   22    -435.1544954365      7.13E-06 Normal BFGS step
   23    -435.1544954370      1.07E-05 Normal BFGS step
   24    -435.1544954382      1.48E-05 Normal BFGS step
   25    -435.1544954409      2.64E-05 Normal BFGS step
   26    -435.1544954479      4.57E-05 Normal BFGS step
   27    -435.1544954658      7.72E-05 Normal BFGS step
   28    -435.1544955123      1.29E-04 Normal BFGS step
   29    -435.1544956221      2.12E-04 Normal BFGS step
   30    -435.1544957575      2.96E-04 Normal BFGS step
   31    -435.1544960696      2.69E-04 Normal BFGS step
   32    -435.1544969501      2.48E-04 Normal BFGS step
   33    -435.1544970313      1.64E-04 Normal BFGS step
   34    -435.1544956081      1.30E-03 Line search: overstep
   35    -435.1544972551      2.09E-04 Dog-leg BFGS step
   36    -435.1544965870      1.06E-03 Line search: overstep
   37    -435.1544974545      2.19E-04 Dog-leg BFGS step
   38    -435.1544977677      3.46E-04 Normal BFGS step
   39    -435.1544981192      2.86E-04 Normal BFGS step
   40    -435.1544983580      3.86E-04 Normal BFGS step
   41    -435.1544990530      2.71E-04 Normal BFGS step
   42    -435.1544994804      2.90E-04 Normal BFGS step
   43    -435.1544998776      3.50E-04 Dog-leg BFGS step
   44    -435.1544433385      6.17E-03 Line search: overstep
   45    -435.1545002629      2.69E-04 Dog-leg BFGS step
   46    -435.1544992070      1.14E-03 Line search: overstep
   47    -435.1545005444      1.84E-04 Normal BFGS step
   48    -435.1545007238      3.17E-04 Normal BFGS step
   49    -435.1545008010      1.55E-04 Normal BFGS step
   50    -435.1545009901      9.87E-05 Normal BFGS step
   51    -435.1545014953      4.28E-04 Normal BFGS step
   52    -435.1545019633      1.56E-04 Normal BFGS step
   53    -435.1545020597      8.36E-04 Normal BFGS step
   54    -435.1545028012      1.45E-04 Normal BFGS step
   55    -435.1545032069      3.43E-05 Normal BFGS step
   56    -435.1544875586      3.46E-03 Line search: overstep
   57    -435.1545033853      1.18E-04 Normal BFGS step
   58    -435.1545033809      6.41E-04 Line search: overstep
   59    -435.1545035711      2.86E-04 Normal BFGS step
   60    -435.1545037240      2.74E-04 Normal BFGS step
   61    -435.1545039869      8.29E-05 Normal BFGS step
   62    -435.1545040454      2.00E-04 Normal BFGS step
   63    -435.1545041023      5.82E-05 Normal BFGS step
   64    -435.1545041221      6.46E-05 Normal BFGS step
   65    -435.1545041473      7.08E-05 Normal BFGS step
   66    -435.1545041945      7.54E-05 Normal BFGS step
   67    -435.1545043155      9.24E-05 Normal BFGS step
   68    -435.1545045522      1.58E-04 Normal BFGS step
   69    -435.1545048731      1.91E-04 Normal BFGS step
   70    -435.1544928719      2.97E-03 Line search: overstep
   71    -435.1545049757      1.91E-04 Normal BFGS step
   72    -435.1545052550      2.72E-04 Normal BFGS step
   73    -435.1545053500      5.61E-05 Normal BFGS step
   74    -435.1545054009      5.44E-05 Normal BFGS step
   75    -435.1545054273      1.20E-04 Normal BFGS step
   76    -435.1545054632      1.49E-04 Normal BFGS step
   77    -435.1545055261      1.37E-04 Normal BFGS step
   78    -435.1545055862      8.87E-05 Normal BFGS step
   79    -435.1545056519      1.20E-04 Normal BFGS step
   80    -435.1545057176      5.98E-05 Normal BFGS step
   81    -435.1545055885      3.67E-04 Line search: overstep
   82    -435.1545057430      5.08E-05 Normal BFGS step
   GDM::WARNING energy changes are now smaller than effective accuracy.
   GDM::        calculation will continue, but THRESH should be increased
   GDM::        or SCF_CONVERGENCE decreased.
   GDM::        effective_thresh =   1.593156447043942E-009
   83    -435.1545057416      1.42E-04 Normal BFGS step
   84    -435.1545057648      1.89E-05 Normal BFGS step
   85    -435.1545057702      2.22E-05 Normal BFGS step
   86    -435.1545057777      5.14E-05 Normal BFGS step
   87    -435.1545057814      2.05E-05 Normal BFGS step
   88    -435.1545057846      1.05E-05 Normal BFGS step
   89    -435.1545057864      4.97E-06 Normal BFGS step
   90    -435.1545057868      3.36E-06 Normal BFGS step
   91    -435.1545057868      1.32E-06 Normal BFGS step
   92    -435.1545057868      6.32E-07 Normal BFGS step
   93    -435.1545057868      2.08E-07 Normal BFGS step
   94    -435.1545057868      1.85E-07 Normal BFGS step
   95    -435.1545057868      1.07E-07 Normal BFGS step
   96    -435.1545057868      2.90E-08 Convergence criterion met
 ---------------------------------------
 <S^2> = 0.7529
 SCF time:  CPU 13.59 s  wall 19.29 s
 SCF   energy in the final basis set = -435.1545057868
 Total energy in the final basis set = -435.1545057868
================================================================================
|                                                                              |
|                                 A D C  M A N                                 |
|                                                                              |
 ------------------------------------------------------------------------------ 
|                                                                              |
| Components:                                                                  |
|                                                                              |
| - libvmm - 1.2-release                                                       |
|   Authors:                                                                   |
|   Evgeny Epifanovsky, Ilya Kaliman                                           |
|                                                                              |
| - libtensor - 2.4-trunk                                                      |
|   Authors:                                                                   |
|   Evgeny Epifanovsky, Michael Wormit, Dmitry Zuev, Sam Manzer                |
|                                                                              |
| - libwfa - 1.1-beta                                                          |
|   Authors:                                                                   |
|   Felix Plasser, Stefanie Baeppler, Benjamin Thomitzni, Michael Wormit       |
|                                                                              |
| - libadc - 1.0-beta                                                          |
|   Authors:                                                                   |
|   Michael Wormit, Philipp H. P. Harbach, Caroline Krauter, Dirk Rehn,        |
|   Matthias Schneider, Jan Wenzel                                             |
|                                                                              |
| - adcman - 2.4-beta                                                          |
|   Authors:                                                                   |
|   Michael Wormit, Philipp H. P. Harbach, Caroline Krauter, Dirk Rehn,        |
|   Jan Wenzel, Andreas Dreuw                                                  |
|                                                                              |
| Authors of earlier versions of ADCMAN:                                       |
| Andreas Dreuw, Jan Hendrik Starcke, Dirk Rehn, Michael Wormit                |
|                                                                              |
================================================================================

 
 Alpha MOs, Unrestricted
 -- Occupied --                  
-26.747 -26.745 -26.745 -26.587 -11.961  -2.158  -2.053  -2.050
  1 A     2 A     3 A     4 A     5 A     6 A     7 A     8 A                  
 -1.838  -1.322  -1.231  -1.231  -1.177  -1.067  -1.067  -1.038
  9 A    10 A    11 A    12 A    13 A    14 A    15 A    16 A                  
 -1.037  -1.018  -1.005  -0.899  -0.897
 17 A    18 A    19 A    20 A    21 A                                          
 -- Virtual --                   
 -0.256   0.059   0.164   0.165   0.331   0.392   0.395   0.409
 22 A    23 A    24 A    25 A    26 A    27 A    28 A    29 A                  
  0.921   1.011   1.013   1.022   1.089   1.091   1.188   1.219
 30 A    31 A    32 A    33 A    34 A    35 A    36 A    37 A                  
  1.253   1.285   1.285   1.294   1.295   1.309   1.395   1.456
 38 A    39 A    40 A    41 A    42 A    43 A    44 A    45 A                  
  1.644   1.646   1.743   1.745   1.780   1.829   1.842   1.862
 46 A    47 A    48 A    49 A    50 A    51 A    52 A    53 A                  
  1.881   1.908   1.910   1.929   1.949   1.963   1.965   1.984
 54 A    55 A    56 A    57 A    58 A    59 A    60 A    61 A                  
  2.056   2.437   2.587   2.591   2.911   2.916   3.156   3.157
 62 A    63 A    64 A    65 A    66 A    67 A    68 A    69 A                  
  3.176   3.573   4.214   4.582   4.593   4.648
 70 A    71 A    72 A    73 A    74 A    75 A                                  
 
 Beta MOs, Unrestricted
 -- Occupied --                  
-26.747 -26.745 -26.745 -26.539 -11.961  -2.158  -2.053  -2.050
  1 A     2 A     3 A     4 A     5 A     6 A     7 A     8 A                  
 -1.645  -1.322  -1.231  -1.231  -1.178  -1.067  -1.067  -1.038
  9 A    10 A    11 A    12 A    13 A    14 A    15 A    16 A                  
 -1.037  -1.018  -0.846  -0.845
 17 A    18 A    19 A    20 A                                                  
 -- Virtual --                   
 -0.256  -0.086   0.059   0.165   0.165   0.333   0.392   0.395
 21 A    22 A    23 A    24 A    25 A    26 A    27 A    28 A                  
  0.410   0.949   1.011   1.013   1.024   1.091   1.092   1.234
 29 A    30 A    31 A    32 A    33 A    34 A    35 A    36 A                  
  1.276   1.285   1.285   1.293   1.296   1.309   1.398   1.407
 37 A    38 A    39 A    40 A    41 A    42 A    43 A    44 A                  
  1.464   1.644   1.646   1.744   1.745   1.780   1.844   1.847
 45 A    46 A    47 A    48 A    49 A    50 A    51 A    52 A                  
  1.908   1.930   1.954   1.963   1.965   1.968   1.969   1.979
 53 A    54 A    55 A    56 A    57 A    58 A    59 A    60 A                  
  2.000   2.056   2.438   2.587   2.591   2.911   2.916   3.156
 61 A    62 A    63 A    64 A    65 A    66 A    67 A    68 A                  
  3.157   3.177   3.613   4.214   4.582   4.593   4.648
 69 A    70 A    71 A    72 A    73 A    74 A    75 A                          
 

--------------------------------------------------------------------------------
                                   HF Summary                                   
--------------------------------------------------------------------------------
  Energy:                                                 -435.1545057868 a.u.
  Dip. moment [a.u.]:                  [ -54.323157,  181.633507,    0.189193]
  Total dipole [Debye]:                                             481.872401
  <r^2> [a.u.]:                        [ 178.623458, 1048.037620,  113.181049]
  Total <r^2> [a.u.]:                                              1339.842127
--------------------------------------------------------------------------------

--------------------------------------------------------------------------------
                                 MP(2) Summary                                  
--------------------------------------------------------------------------------
  Energy contribution:                                      -0.7470537461 a.u.
  Total energy:                                           -435.9015595329 a.u.
  Dip. moment [a.u.]:                  [ -54.369833,  181.516819,    0.226571]
  Total dipole [Debye]:                                             481.622386
  <r^2> [a.u.]:                        [ 178.438790, 1046.854446,  112.858441]
  Total <r^2> [a.u.]:                                              1338.151677
--------------------------------------------------------------------------------
  Starting Davidson ... 
--------------------------------------------------------------------------------
   It NVec Conv  Avg. Norm  Max. Norm  Conv. states           Remark
--------------------------------------------------------------------------------
        20    0  2.059e-01  1.135e+00 10.9480 n n n n n n n n Guess.
    1   40    0  8.652e-02  1.041e+00 10.7852 n n n n n n n n 
    2   60    0  4.654e-02  7.266e-01 10.7839 n n n n n n n n 
    3   80    0  1.519e-02  2.541e-01 10.7838 n n n n n n n n 
    4  100    0  5.165e-03  8.530e-02 10.7838 n n n n n n n n 
    5   40    0  2.281e-03  3.375e-02 10.7838 n n n n n n n n Subspace collapsed.
    6   60    0  4.508e-03  6.037e-02 10.7838 n n n n n n n n 
    7   80    0  4.186e-03  6.384e-02 10.7838 n n n n n n n n 
    8  100    2  6.070e-03  1.129e-01 10.7838 y y n n n n n n 
    9   40    7  2.660e-03  4.905e-02 10.7838 y y n y y n y y Subspace collapsed.
   10   60    7  2.470e-03  4.560e-02 10.7838 y y n y y n y y 
   11   80    9  1.320e-03  2.365e-02 10.7838 y y y y y y y y 
   12  100   14  1.590e-03  2.940e-02 10.7838 y y y y y y y y 
   13   40   17  1.060e-03  1.868e-02 10.7838 y y y y y y y y Subspace collapsed.
   14   60   17  1.327e-03  2.318e-02 10.7838 y y y y y y y y 
   15   80   17  1.232e-03  2.050e-02 10.7838 y y y y y y y y 
   16   80   17  1.232e-03  2.050e-02 10.7838 y y y y y y y y 
   17  100   17  1.458e-03  2.097e-02 10.7838 y y y y y y y y 
   18   38   17  6.447e-04  9.082e-03 10.7838 y y y y y y y y Subspace collapsed.
   19   44   17  6.951e-04  1.027e-02 10.7838 y y y y y y y y 
   20   45   17  6.953e-04  1.029e-02 10.7838 y y y y y y y y 
   21   46   17  6.947e-04  1.027e-02 10.7838 y y y y y y y y 
   22   47   17  6.944e-04  1.027e-02 10.7838 y y y y y y y y 
   23   48   17  6.954e-04  1.026e-02 10.7838 y y y y y y y y 
   24   61   17  5.122e-04  7.934e-03 10.7838 y y y y y y y y 
   25   73   17  3.447e-04  5.036e-03 10.7838 y y y y y y y y 
   26   84   17  3.390e-04  5.903e-03 10.7838 y y y y y y y y 
   27   95   17  5.276e-04  7.380e-03 10.7838 y y y y y y y y 
   28  100   17  5.231e-04  7.212e-03 10.7838 y y y y y y y y 
   29   31   17  2.587e-04  3.709e-03 10.7838 y y y y y y y y Subspace collapsed.
   30   42   17  2.277e-04  3.582e-03 10.7838 y y y y y y y y 
   31   53   17  2.381e-04  4.074e-03 10.7838 y y y y y y y y 
   32   54   17  2.382e-04  4.076e-03 10.7838 y y y y y y y y 
   33   55   17  2.382e-04  4.076e-03 10.7838 y y y y y y y y 
   34   56   17  2.385e-04  4.084e-03 10.7838 y y y y y y y y 
   35   57   17  2.393e-04  4.089e-03 10.7838 y y y y y y y y 
   36   58   17  2.391e-04  4.084e-03 10.7838 y y y y y y y y 
   37   59   17  2.393e-04  4.088e-03 10.7838 y y y y y y y y 
   38   59   17  2.393e-04  4.088e-03 10.7838 y y y y y y y y 
   39   59   17  2.393e-04  4.088e-03 10.7838 y y y y y y y y 
   40   79   17  3.380e-04  5.652e-03 10.7838 y y y y y y y y 
   41   79   17  3.380e-04  5.652e-03 10.7838 y y y y y y y y 
   42   85   17  3.409e-04  5.681e-03 10.7838 y y y y y y y y 
   43   86   17  3.404e-04  5.672e-03 10.7838 y y y y y y y y 
   44   86   17  3.404e-04  5.672e-03 10.7838 y y y y y y y y 
   45   86   17  3.404e-04  5.672e-03 10.7838 y y y y y y y y 
   46  100   17  3.469e-04  5.763e-03 10.7838 y y y y y y y y 
   47   20   17  3.469e-04  5.763e-03 10.7838 y y y y y y y y Subspace collapsed.
   48   20   17  3.469e-04  5.763e-03 10.7838 y y y y y y y y 
   49   20   17  3.469e-04  5.763e-03 10.7838 y y y y y y y y 
   50   20   17  3.469e-04  5.763e-03 10.7838 y y y y y y y y 
   51   40   17  2.120e-04  3.575e-03 10.7838 y y y y y y y y 
   52   44   17  2.134e-04  3.458e-03 10.7838 y y y y y y y y 
   53   48   17  1.811e-04  2.806e-03 10.7838 y y y y y y y y 
   54   52   17  2.417e-04  3.845e-03 10.7838 y y y y y y y y 
   55   52   17  2.417e-04  3.845e-03 10.7838 y y y y y y y y 
   56   52   17  2.417e-04  3.845e-03 10.7838 y y y y y y y y 
   57   52   17  2.417e-04  3.845e-03 10.7838 y y y y y y y y 
   58   72   17  5.817e-04  8.902e-03 10.7838 y y y y y y y y 
   59   75   17  7.809e-04  1.294e-02 10.7838 y y y y y y y y 
--------------------------------------------------------------------------------
  Davidson Summary: 
 ------------------------------------------------------------
  State  0: excitation energy =  10.7838 a.u.   (converged)
  State  1: excitation energy =  10.8541 a.u.   (converged)
  State  2: excitation energy =  11.1628 a.u.   (converged)
  State  3: excitation energy =  11.1976 a.u.   (converged)
  State  4: excitation energy =  11.2013 a.u.   (converged)
  State  5: excitation energy =  11.2285 a.u.   (converged)
  State  6: excitation energy =  11.2699 a.u.   (converged)
  State  7: excitation energy =  11.2759 a.u.   (converged)
  State  8: excitation energy =  11.2782 a.u.   (converged)
  State  9: excitation energy =  11.5281 a.u.   (converged)
  State 10: excitation energy =  11.5548 a.u.   (converged)
  State 11: excitation energy =  11.5655 a.u.   (converged)
  State 12: excitation energy =  11.5735 a.u.   (converged)
  State 13: excitation energy =  11.5742 a.u.   (converged)
  State 14: excitation energy =  11.5898 a.u.   (converged)
  State 15: excitation energy =  11.5908 a.u.   (converged)
  State 16: excitation energy =  11.5982 a.u.   (converged)
  State 17: excitation energy =  12.2283 a.u.   (not converged)
  State 18: excitation energy =  12.2296 a.u.   (not converged)
  State 19: excitation energy =  12.2336 a.u.   (not converged)
 ------------------------------------------------------------


--------------------------------------------------------------------------------
                             Excited State Summary
--------------------------------------------------------------------------------

  Excited state  1 (A)                                             [converged]
  ----------------------------------------------------------------------------
  Term symbol:  2 (-) A                                     R^2 =  6.08988e-14

  Total energy:                                           -425.1177120111 a.u.
  Excitation energy:                                             293.443415 eV

  Osc. strength:                                                      0.000000
  Trans. dip. moment [a.u.]:           [   0.000019,    0.000047,   -0.000015]
  <i|r^2|0> [a.u.]:                    [  -0.000040,    0.000493,    0.000009]

  V1^2 = 0.9566, V2^2 = 0.0434

  Important amplitudes:
     core i     occ j      vir a      vir b          v   
    ------------------------------------------------------
     5 (A) A              22 (A) A                 0.6529
     5 (A) B              21 (A) B                -0.6522
    ------------------------------------------------------
  ----------------------------------------------------------------------------


  Excited state  2 (A)                                             [converged]
  ----------------------------------------------------------------------------
  Term symbol:  3 (-) A                                     R^2 =  3.72897e-14

  Total energy:                                           -425.0474770216 a.u.
  Excitation energy:                                             295.354606 eV

  Osc. strength:                                                      0.096896
  Trans. dip. moment [a.u.]:           [  -0.040567,   -0.102825,    0.034236]
  <i|r^2|0> [a.u.]:                    [   0.088909,   -1.084762,   -0.018055]

  V1^2 = 0.9515, V2^2 = 0.0485

  Important amplitudes:
     core i     occ j      vir a      vir b          v   
    ------------------------------------------------------
     5 (A) B              21 (A) B                -0.6643
     5 (A) A              22 (A) A                -0.6636
    ------------------------------------------------------
  ----------------------------------------------------------------------------


  Excited state  3 (A)                                             [converged]
  ----------------------------------------------------------------------------
  Term symbol:  4 (-) A                                     R^2 =  8.73174e-13

  Total energy:                                           -424.7387900166 a.u.
  Excitation energy:                                             303.754407 eV

  Osc. strength:                                                      0.000000
  Trans. dip. moment [a.u.]:           [   0.000023,    0.000056,   -0.000017]
  <i|r^2|0> [a.u.]:                    [  -0.000043,    0.000603,    0.000015]

  V1^2 = 0.9289, V2^2 = 0.0711

  Important amplitudes:
     core i     occ j      vir a      vir b          v   
    ------------------------------------------------------
     5 (A) A              23 (A) A                 0.6015
     5 (A) B              23 (A) B                -0.6009
    ------------------------------------------------------
  ----------------------------------------------------------------------------


  Excited state  4 (A)                                             [converged]
  ----------------------------------------------------------------------------
  Term symbol:  5 (-) A                                     R^2 =  4.05492e-14

  Total energy:                                           -424.7039781660 a.u.
  Excitation energy:                                             304.701685 eV

  Osc. strength:                                                      0.000000
  Trans. dip. moment [a.u.]:           [   0.000049,   -0.000027,   -0.000022]
  <i|r^2|0> [a.u.]:                    [  -0.000104,   -0.000282,    0.000017]

  V1^2 = 0.9516, V2^2 = 0.0484

  Important amplitudes:
     core i     occ j      vir a      vir b          v   
    ------------------------------------------------------
     5 (A) A              24 (A) A                -0.5155
     5 (A) B              24 (A) B                 0.5155
    ------------------------------------------------------
  ----------------------------------------------------------------------------


  Excited state  5 (A)                                             [converged]
  ----------------------------------------------------------------------------
  Term symbol:  6 (-) A                                     R^2 =  8.81908e-14

  Total energy:                                           -424.7002818546 a.u.
  Excitation energy:                                             304.802267 eV

  Osc. strength:                                                      0.000000
  Trans. dip. moment [a.u.]:           [  -0.000009,   -0.000004,   -0.000010]
  <i|r^2|0> [a.u.]:                    [   0.000018,   -0.000042,    0.000006]

  V1^2 = 0.9515, V2^2 = 0.0485

  Important amplitudes:
     core i     occ j      vir a      vir b          v   
    ------------------------------------------------------
     5 (A) A              25 (A) A                 0.5132
     5 (A) B              25 (A) B                -0.5121
    ------------------------------------------------------
  ----------------------------------------------------------------------------


  Excited state  6 (A)                                             [converged]
  ----------------------------------------------------------------------------
  Term symbol:  7 (-) A                                     R^2 =  3.21283e-14

  Total energy:                                           -424.6730922611 a.u.
  Excitation energy:                                             305.542134 eV

  Osc. strength:                                                      0.018250
  Trans. dip. moment [a.u.]:           [  -0.019929,   -0.044179,    0.009435]
  <i|r^2|0> [a.u.]:                    [   0.024310,   -0.495680,   -0.022652]

  V1^2 = 0.9171, V2^2 = 0.0829

  Important amplitudes:
     core i     occ j      vir a      vir b          v   
    ------------------------------------------------------
     5 (A) B              23 (A) B                -0.6359
     5 (A) A              23 (A) A                -0.6353
    ------------------------------------------------------
  ----------------------------------------------------------------------------


  Excited state  7 (A)                                             [converged]
  ----------------------------------------------------------------------------
  Term symbol:  8 (-) A                                     R^2 =  4.62685e-14

  Total energy:                                           -424.6316890273 a.u.
  Excitation energy:                                             306.668773 eV

  Osc. strength:                                                      0.020686
  Trans. dip. moment [a.u.]:           [  -0.042857,    0.023356,    0.019260]
  <i|r^2|0> [a.u.]:                    [   0.089439,    0.247402,   -0.015735]

  V1^2 = 0.8677, V2^2 = 0.1323

  Important amplitudes:
     core i     occ j      vir a      vir b          v   
    ------------------------------------------------------
     5 (A) B              22 (A) B                -0.8372
     5 (A) A              24 (A) A                -0.2490
    ------------------------------------------------------
  ----------------------------------------------------------------------------


  Excited state  8 (A)                                             [converged]
  ----------------------------------------------------------------------------
  Term symbol:  9 (-) A                                     R^2 =  3.40403e-14

  Total energy:                                           -424.6256961418 a.u.
  Excitation energy:                                             306.831848 eV

  Osc. strength:                                                      0.096137
  Trans. dip. moment [a.u.]:           [   0.090321,   -0.050699,   -0.045394]
  <i|r^2|0> [a.u.]:                    [  -0.188288,   -0.537157,    0.036587]

  V1^2 = 0.9260, V2^2 = 0.0740

  Important amplitudes:
     core i     occ j      vir a      vir b          v   
    ------------------------------------------------------
     5 (A) B              24 (A) B                 0.5160
     5 (A) A              24 (A) A                 0.5000
    ------------------------------------------------------
  ----------------------------------------------------------------------------


  Excited state  9 (A)                                             [converged]
  ----------------------------------------------------------------------------
  Term symbol:  10 (-) A                                    R^2 =  3.49537e-14

  Total energy:                                           -424.6233865526 a.u.
  Excitation energy:                                             306.894695 eV

  Osc. strength:                                                      0.115961
  Trans. dip. moment [a.u.]:           [  -0.059305,   -0.010233,   -0.108632]
  <i|r^2|0> [a.u.]:                    [   0.124539,   -0.106172,    0.073621]

  V1^2 = 0.9425, V2^2 = 0.0575

  Important amplitudes:
     core i     occ j      vir a      vir b          v   
    ------------------------------------------------------
     5 (A) A              25 (A) A                -0.5567
     5 (A) B              25 (A) B                -0.5558
    ------------------------------------------------------
  ----------------------------------------------------------------------------


  Excited state 10 (A)                                             [converged]
  ----------------------------------------------------------------------------
  Term symbol:  11 (-) A                                    R^2 =  3.37695e-14

  Total energy:                                           -424.3734167191 a.u.
  Excitation energy:                                             313.696720 eV

  Osc. strength:                                                      0.000016
  Trans. dip. moment [a.u.]:           [   0.000477,    0.001267,   -0.000469]
  <i|r^2|0> [a.u.]:                    [  -0.001227,    0.013223,    0.000077]

  V1^2 = 0.9158, V2^2 = 0.0842

  Important amplitudes:
     core i     occ j      vir a      vir b          v   
    ------------------------------------------------------
     5 (A) A              26 (A) A                -0.5655
     5 (A) B              26 (A) B                 0.5350
    ------------------------------------------------------
  ----------------------------------------------------------------------------


  Excited state 11 (A)                                             [converged]
  ----------------------------------------------------------------------------
  Term symbol:  12 (-) A                                    R^2 =  4.15291e-14

  Total energy:                                           -424.3467680809 a.u.
  Excitation energy:                                             314.421866 eV

  Osc. strength:                                                      0.000015
  Trans. dip. moment [a.u.]:           [   0.000480,    0.001223,   -0.000417]
  <i|r^2|0> [a.u.]:                    [  -0.001165,    0.012824,    0.000108]

  V1^2 = 0.8991, V2^2 = 0.1009

  Important amplitudes:
     core i     occ j      vir a      vir b          v   
    ------------------------------------------------------
     5 (A) A              29 (A) A                 0.5038
     5 (A) B              29 (A) B                -0.5033
    ------------------------------------------------------
  ----------------------------------------------------------------------------


  Excited state 12 (A)                                             [converged]
  ----------------------------------------------------------------------------
  Term symbol:  13 (-) A                                    R^2 =  5.78885e-14

  Total energy:                                           -424.3360961816 a.u.
  Excitation energy:                                             314.712263 eV

  Osc. strength:                                                      0.039320
  Trans. dip. moment [a.u.]:           [   0.025715,    0.063574,   -0.019921]
  <i|r^2|0> [a.u.]:                    [  -0.059594,    0.669441,    0.006896]

  V1^2 = 0.9079, V2^2 = 0.0921

  Important amplitudes:
     core i     occ j      vir a      vir b          v   
    ------------------------------------------------------
     5 (A) B              26 (A) B                -0.6727
     5 (A) A              26 (A) A                -0.6356
    ------------------------------------------------------
  ----------------------------------------------------------------------------


  Excited state 13 (A)                                             [converged]
  ----------------------------------------------------------------------------
  Term symbol:  14 (-) A                                    R^2 =  1.05226e-13

  Total energy:                                           -424.3280947062 a.u.
  Excitation energy:                                             314.929994 eV

  Osc. strength:                                                      0.000020
  Trans. dip. moment [a.u.]:           [   0.001327,   -0.000698,   -0.000571]
  <i|r^2|0> [a.u.]:                    [  -0.002703,   -0.007434,    0.000449]

  V1^2 = 0.8954, V2^2 = 0.1046

  Important amplitudes:
     core i     occ j      vir a      vir b          v   
    ------------------------------------------------------
     5 (A) A              27 (A) A                 0.5214
     5 (A) B              27 (A) B                -0.4955
    ------------------------------------------------------
  ----------------------------------------------------------------------------


  Excited state 14 (A)                                             [converged]
  ----------------------------------------------------------------------------
  Term symbol:  15 (-) A                                    R^2 =  8.06417e-14

  Total energy:                                           -424.3273299585 a.u.
  Excitation energy:                                             314.950804 eV

  Osc. strength:                                                      0.000003
  Trans. dip. moment [a.u.]:           [   0.000274,    0.000561,   -0.000171]
  <i|r^2|0> [a.u.]:                    [  -0.000593,    0.005939,    0.000087]

  V1^2 = 0.8956, V2^2 = 0.1044

  Important amplitudes:
     core i     occ j      vir a      vir b          v   
    ------------------------------------------------------
     5 (A) A              28 (A) A                 0.5035
     5 (A) B              28 (A) B                -0.5027
    ------------------------------------------------------
  ----------------------------------------------------------------------------


  Excited state 15 (A)                                             [converged]
  ----------------------------------------------------------------------------
  Term symbol:  16 (-) A                                    R^2 =  3.80645e-13

  Total energy:                                           -424.3118062163 a.u.
  Excitation energy:                                             315.373227 eV

  Osc. strength:                                                      0.031776
  Trans. dip. moment [a.u.]:           [   0.052327,   -0.028568,   -0.023630]
  <i|r^2|0> [a.u.]:                    [  -0.106506,   -0.304392,    0.018438]

  V1^2 = 0.8987, V2^2 = 0.1013

  Important amplitudes:
     core i     occ j      vir a      vir b          v   
    ------------------------------------------------------
     5 (A) B              27 (A) B                 0.5664
     5 (A) A              27 (A) A                 0.5410
    ------------------------------------------------------
  ----------------------------------------------------------------------------


  Excited state 16 (A)                                             [converged]
  ----------------------------------------------------------------------------
  Term symbol:  17 (-) A                                    R^2 =  1.70206e-13

  Total energy:                                           -424.3107457807 a.u.
  Excitation energy:                                             315.402083 eV

  Osc. strength:                                                      0.032445
  Trans. dip. moment [a.u.]:           [  -0.029224,   -0.005967,   -0.057525]
  <i|r^2|0> [a.u.]:                    [   0.059828,   -0.062967,    0.041361]

  V1^2 = 0.8989, V2^2 = 0.1011

  Important amplitudes:
     core i     occ j      vir a      vir b          v   
    ------------------------------------------------------
     5 (A) B              28 (A) B                -0.5471
     5 (A) A              28 (A) A                -0.5463
    ------------------------------------------------------
  ----------------------------------------------------------------------------


  Excited state 17 (A)                                             [converged]
  ----------------------------------------------------------------------------
  Term symbol:  18 (-) A                                    R^2 =  9.27788e-13

  Total energy:                                           -424.3034086028 a.u.
  Excitation energy:                                             315.601737 eV

  Osc. strength:                                                      0.001307
  Trans. dip. moment [a.u.]:           [   0.004669,    0.011584,   -0.003611]
  <i|r^2|0> [a.u.]:                    [   0.014573,    0.147834,    0.026489]

  V1^2 = 0.9096, V2^2 = 0.0904

  Important amplitudes:
     core i     occ j      vir a      vir b          v   
    ------------------------------------------------------
     5 (A) B              29 (A) B                 0.6414
     5 (A) A              29 (A) A                 0.6401
    ------------------------------------------------------
  ----------------------------------------------------------------------------


  Excited state 18 (A)                                         [not converged]
  ----------------------------------------------------------------------------
  Term symbol:  19 (-) A                                    R^2 =  2.15398e-03

  Total energy:                                           -423.6733084680 a.u.
  Excitation energy:                                             332.747634 eV


  V1^2 = 0.8690, V2^2 = 0.1310

  Important amplitudes:
     core i     occ j      vir a      vir b          v   
    ------------------------------------------------------
     5 (A) B              31 (A) B                 0.6044
     5 (A) A              31 (A) A                -0.5953
    ------------------------------------------------------
  ----------------------------------------------------------------------------


  Excited state 19 (A)                                         [not converged]
  ----------------------------------------------------------------------------
  Term symbol:  20 (-) A                                    R^2 =  8.46932e-03

  Total energy:                                           -423.6719349299 a.u.
  Excitation energy:                                             332.785010 eV


  V1^2 = 0.8688, V2^2 = 0.1312

  Important amplitudes:
     core i     occ j      vir a      vir b          v   
    ------------------------------------------------------
     5 (A) B              32 (A) B                 0.6198
     5 (A) A              32 (A) A                -0.5626
    ------------------------------------------------------
  ----------------------------------------------------------------------------


  Excited state 20 (A)                                         [not converged]
  ----------------------------------------------------------------------------
  Term symbol:  21 (-) A                                    R^2 =  1.29440e-02

  Total energy:                                           -423.6679532645 a.u.
  Excitation energy:                                             332.893357 eV


  V1^2 = 0.8683, V2^2 = 0.1317

  Important amplitudes:
     core i     occ j      vir a      vir b          v   
    ------------------------------------------------------
     5 (A) A              31 (A) A                -0.5355
     5 (A) B              31 (A) B                -0.5317
    ------------------------------------------------------
  ----------------------------------------------------------------------------


--------------------------------------------------------------------------------
  Time of ADC calculation:  CPU 1272.21 s  wall 1348.66 s
================================================================================
 
 --------------------------------------------------------------
 
                    Orbital Energies (a.u.)
 --------------------------------------------------------------
 
 Alpha MOs
 -- Occupied --
-26.747 -26.745 -26.745 -26.587 -11.961  -2.158  -2.053  -2.050
 -1.838  -1.322  -1.231  -1.231  -1.177  -1.067  -1.067  -1.038
 -1.037  -1.018  -1.005  -0.899  -0.897
 -- Virtual --
 -0.256   0.059   0.164   0.165   0.331   0.392   0.395   0.409
  0.921   1.011   1.013   1.022   1.089   1.091   1.188   1.219
  1.253   1.285   1.285   1.294   1.295   1.309   1.395   1.456
  1.644   1.646   1.743   1.745   1.780   1.829   1.842   1.862
  1.881   1.908   1.910   1.929   1.949   1.963   1.965   1.984
  2.056   2.437   2.587   2.591   2.911   2.916   3.156   3.157
  3.176   3.573   4.214   4.582   4.593   4.648
 
 Beta MOs
 -- Occupied --
-26.747 -26.745 -26.745 -26.539 -11.961  -2.158  -2.053  -2.050
 -1.645  -1.322  -1.231  -1.231  -1.178  -1.067  -1.067  -1.038
 -1.037  -1.018  -0.846  -0.845
 -- Virtual --
 -0.256  -0.086   0.059   0.165   0.165   0.333   0.392   0.395
  0.410   0.949   1.011   1.013   1.024   1.091   1.092   1.234
  1.276   1.285   1.285   1.293   1.296   1.309   1.398   1.407
  1.464   1.644   1.646   1.744   1.745   1.780   1.844   1.847
  1.908   1.930   1.954   1.963   1.965   1.968   1.969   1.979
  2.000   2.056   2.438   2.587   2.591   2.911   2.916   3.156
  3.157   3.177   3.613   4.214   4.582   4.593   4.648
 --------------------------------------------------------------
 
          Ground-State Mulliken Net Atomic Charges

     Atom                 Charge (a.u.)    Spin (a.u.)
  --------------------------------------------------------
      1 C                     1.266840      -0.001777
      2 F                    -0.095233      -0.000039
      3 F                    -0.095257      -0.000039
      4 F                     0.012566       1.001887
      5 F                    -0.088916      -0.000032
  --------------------------------------------------------
  Sum of atomic charges =     1.000000
  Sum of spin   charges =     1.000000

 -----------------------------------------------------------------
                    Cartesian Multipole Moments
 -----------------------------------------------------------------
    Charge (ESU x 10^10)
                 4.8032
    Dipole Moment (Debye)
         X      -2.7536      Y      13.0536      Z      -0.7739
       Tot      13.3633
    Quadrupole Moments (Debye-Ang)
        XX     -18.8499     XY      -7.2773     YY      15.8197
        XZ       0.0113     YZ      -2.4940     ZZ     -20.7509
    Octopole Moments (Debye-Ang^2)
       XXX      41.9665    XXY     -44.6369    XYY      -5.0688
       YYY     -43.5753    XXZ       1.2388    XYZ       0.7530
       YYZ      -7.0987    XZZ      13.4355    YZZ     -48.1270
       ZZZ      -0.7515
    Hexadecapole Moments (Debye-Ang^3)
      XXXX    -140.5627   XXXY      78.3794   XXYY    -163.2714
      XYYY      23.6833   YYYY    -597.1900   XXXZ       5.7219
      XXYZ       9.7763   XYYZ       5.4400   YYYZ       8.5448
      XXZZ     -37.0294   XYZZ      23.5127   YYZZ    -160.1638
      XZZZ      10.3950   YZZZ      25.4534   ZZZZ     -89.1000
 -----------------------------------------------------------------
Archival summary:
1\1\tp-linux1\SP\HF\6-31G*\41(1+,2)\thomas\WedMar2218:39:042017WedMar2218:39:042017\0\\#,HF,6-31G*,\\1,2\C\F,1,1.23433\F,1,1.23964,2,117.022\F,1,1.23967,2,116.996,3,-146.21,0\F,1,3.11982,2,103.572,3,106.755,0\\HF=-435.154506\\@

 Total job time:  1369.95s(wall), 1287.59s(cpu) 
 Wed Mar 22 18:39:04 2017

        *************************************************************
        *                                                           *
        *  Thank you very much for using Q-Chem.  Have a nice day.  *
        *                                                           *
        *************************************************************


0 sent ACK to 0 
now end server 0 ... 
cleanup process ... done
