
Running Job 1 of 1 ddtraj1t11.inp
qchem ddtraj1t11.inp_1184.0 /scratch/qchem/qchem1184/ 1
/mnt/software/qchem/bin/mpi/mpirun_qchem -machinefile /mnt/software/qchem/bin/mpi/machines -np 1 /mnt/software/qchem/exe/qcprog.exe ddtraj1t11.inp_1184.0 /scratch/qchem/qchem1184/

Process 0 of 1 is on tp-linux1 - thread support 0
initial socket setup ...start
initial socket setup ...done 
now start server 0 ... 

cmd = ssh tp-linux1 /mnt/software/qchem/bin/get_hostid 762783920 > /scratch/qchem/qchem1184/lic.dat
                  Welcome to Q-Chem
     A Quantum Leap Into The Future Of Chemistry


 Q-Chem 4.3, Q-Chem, Inc., Pleasanton, CA (2015)

 Y. Shao,  Z. Gan,  E. Epifanovsky,  A. T. B. Gilbert,  M. Wormit,  
 J. Kussmann,  A. W. Lange,  A. Behn,  J. Deng,  X. Feng,  D. Ghosh,  
 M. Goldey,  P. R. Horn,  L. D. Jacobson,  I. Kaliman,  R. Z. Khaliullin,  
 T. Kus,  A. Landau,  J. Liu,  E. I. Proynov,  Y. M. Rhee,  R. M. Richard,  
 M. A. Rohrdanz,  R. P. Steele,  E. J. Sundstrom,  H. L. Woodcock III,  
 P. M. Zimmerman,  D. Zuev,  B. Albrecht,  E. Alguire,  B. Austin,  
 S. A. Baeppler,  G. J. O. Beran,  Y. A. Bernard,  E. Berquist,  
 K. Brandhorst,  K. B. Bravaya,  S. T. Brown,  D. Casanova,  C.-M. Chang,  
 Y. Chen,  S. H. Chien,  K. D. Closser,  D. L. Crittenden,  M. Diedenhofen,  
 R. A. DiStasio Jr.,  H. Do,  A. D. Dutoi,  R. G. Edgar,  P.-T. Fang,  
 S. Fatehi,  Q. Feng,  L. Fusti-Molnar,  A. Ghysels,  
 A. Golubeva-Zadorozhnaya,  J. Gomes,  A. Gunina,  M. W. D. Hanson-Heine,  
 P. H. P. Harbach,  A. W. Hauser,  E. G. Hohenstein,  Z. C. Holden,  K. Hui,  
 T.-C. Jagau,  H. Ji,  B. Kaduk,  K. Khistyaev,  Jaehoon Kim,  Jihan Kim,  
 R. A. King,  P. Klunzinger,  D. Kosenkov,  T. Kowalczyk,  C. M. Krauter,  
 K. U. Lao,  A. Laurent,  K. V. Lawler,  S. Lehtola,  S. V. Levchenko,  
 C. Y. Lin,  Y.-S. Lin,  F. Liu,  E. Livshits,  R. C. Lochan,  A. Luenser,  
 P. Manohar,  S. F. Manzer,  S.-P. Mao,  N. Mardirossian,  A. V. Marenich,  
 L. A. Martinez-Martinez,  S. A. Maurer,  N. J. Mayhall,  K. Nanda,  
 C. M. Oana,  R. Olivares-Amaya,  D. P. O'Neill,  J. A. Parkhill,  
 T. M. Perrine,  R. Peverati,  P. A. Pieniazek,  F. Plasser,  A. Prociuk,  
 D. R. Rehn,  E. Rosta,  N. J. Russ,  N. Sergueev,  S. M. Sharada,  
 S. Sharma,  D. W. Small,  A. Sodt,  T. Stauch,  T. Stein,  D. Stuck,  
 Y.-C. Su,  A. J. W. Thom,  T. Tsuchimochi,  L. Vogt,  O. Vydrov,  T. Wang,  
 M. A. Watson,  J. Wenzel,  A. White,  C. F. Williams,  V. Vanovschi,  
 S. Yeganeh,  S. R. Yost,  Z.-Q. You,  I. Y. Zhang,  X. Zhang,  Y. Zhao,  
 B. R. Brooks,  G. K. L. Chan,  D. M. Chipman,  C. J. Cramer,  
 W. A. Goddard III,  M. S. Gordon,  W. J. Hehre,  A. Klamt,  
 H. F. Schaefer III,  M. W. Schmidt,  C. D. Sherrill,  D. G. Truhlar,  
 A. Warshel,  X. Xu,  A. Aspuru-Guzik,  R. Baer,  A. T. Bell,  N. A. Besley,  
 J.-D. Chai,  A. Dreuw,  B. D. Dunietz,  T. R. Furlani,  S. R. Gwaltney,  
 C.-P. Hsu,  Y. Jung,  J. Kong,  D. S. Lambrecht,  W. Liang,  C. Ochsenfeld,  
 V. A. Rassolov,  L. V. Slipchenko,  J. E. Subotnik,  T. Van Voorhis,  
 J. M. Herbert,  A. I. Krylov,  P. M. W. Gill,  M. Head-Gordon

 Contributors to earlier versions of Q-Chem not listed above: 
 R. D. Adamson,  J. Baker,  E. F. C. Byrd,  A. K. Chakraborty,  C.-L. Cheng,  
 H. Dachsel,  R. J. Doerksen,  G. Hawkins,  A. Heyden,  S. Hirata,  
 G. Kedziora,  F. J. Keil,  C. Kelley,  P. P. Korambath,  W. Kurlancheek,  
 A. M. Lee,  M. S. Lee,  D. Liotard,  I. Lotan,  P. E. Maslen,  N. Nair,  
 D. Neuhauser,  R. Olson,  B. Peters,  J. Ritchie,  N. E. Schultz,  
 N. Shenvi,  A. C. Simmonett,  K. S. Thanthiriwatte,  Q. Wu,  W. Zhang

 Please cite Q-Chem as follows:
 Y. Shao et al., Mol. Phys. 113, 184-215 (2015)
 DOI: 10.1080/00268976.2014.952696

 Q-Chem 4.3.0 for Intel X86 Linux

 Parts of Q-Chem use Armadillo 5.200.1 (Boston Tea Smuggler).
 http://arma.sourceforge.net/

 Q-Chem begins on Wed Mar 22 14:56:05 2017  

Host: 
0

     Scratch files written to /scratch/qchem/qchem1184//
 Nov1815 1189b_ 19540  19532 5443   
 Parallel job on  1  processors
Processing $rem in /mnt/software/qchem/config/preferences.
 MEM_TOTAL  2000 

Checking the input file for inconsistencies... 	...done.

--------------------------------------------------------------
User input:
--------------------------------------------------------------
$comment
XAS calculation for valence excited states for CF4+ using cvs-adc(2) + 6-31G* basis set
job 1 - determination of HF orbitals
$end

$molecule
1 2
6  -0.562792  2.720163  -0.142096
9  0.578256  2.318472  0.008846
9  -1.142381  3.253961  0.787486
9  -1.182139  1.05401  0.48723
9  -1.137334  2.538233  -1.193809
$end

$comment
cvs-adc(2) calculation
$end

$rem
mem_total 3000
mem_static 1500
sym_ignore true
method cvs-adc(2)
basis 6-31G*
ee_singlets 20
cc_rest_occ 5                  !only excitations from the lowest N orbitals
unrestricted  true
max_scf_cycles 200
SCF_ALGORITHM = DIIS_GDM
SCF_CONVERGENCE = 7
THRESH = 10
$end
--------------------------------------------------------------
 ----------------------------------------------------------------
             Standard Nuclear Orientation (Angstroms)
    I     Atom           X                Y                Z
 ----------------------------------------------------------------
    1      C      -0.5627920000     2.7201630000    -0.1420960000
    2      F       0.5782560000     2.3184720000     0.0088460000
    3      F      -1.1423810000     3.2539610000     0.7874860000
    4      F      -1.1821390000     1.0540100000     0.4872300000
    5      F      -1.1373340000     2.5382330000    -1.1938090000
 ----------------------------------------------------------------
 Nuclear Repulsion Energy =   204.3729199129 hartrees
 There are       21 alpha and       20 beta electrons
 Requested basis set is 6-31G(d)
 There are 20 shells and 75 basis functions

 Total QAlloc Memory Limit   3000 MB
 Mega-Array Size      1467 MB
 MEM_STATIC part      1500 MB

                       Distance Matrix (Angstroms)
             C (  1)   F (  2)   F (  3)   F (  4)
   F (  2)  1.219069
   F (  3)  1.218600  2.107608
   F (  4)  1.885658  2.219618  2.220702
   F (  5)  1.212146  2.106638  2.106614  2.242948
 
 tim1(1): 
  0.000000000000000E+000
 tim1(2): 
  0.000000000000000E+000
 A cutoff of  1.0D-10 yielded    203 shell pairs
 There are      2978 function pairs
 
 -------------------------------------------------------
 OpenMP Integral Computing Module                       
 Release: version 1.0, May 2013, Q-Chem Inc. Pittsburgh 
 -------------------------------------------------------
 Integral Job Info:
 Integral job number is                      11
 Integral operator is                         1
 short-range coefficients                     0
 long-range coefficients              100000000
 Omega coefficients                           0
 if combine SR and LR in K                    0
 Integral screening is                        0
 Integral computing path is                   2
 max size of driver memory is            800000
 size of driver memory is                593474
 size of scratch memory is              2260544
 max col of scratch BK array               1296
 max len of scratch array in speh3          155
 max len of scratch index in speh4           18
 max int batch size is                      520
 min int batch size is                       52
 fixed nKL is                                52
 max L of basis functions is                  2
 order of int derivative is                   0
 number of shells is                         20
 number of basis is                          75
 number of cartesian basis is                75
 number of contracted shell pairs           203
 number of primitive shell pairs           1054
 maxK2 (contraction) of shell pair           36
 max number of K2 of shell pair               1
 max number of CS2 of shell pair             32
 max number of PS2 of shell pair            192
 mem total for path MDJ                   21832
 -------------------------------------------------------
 Smallest overlap matrix eigenvalue = 1.38E-03

 Scale SEOQF with 1.000000e+00/1.000000e-01/1.000000e+00

 Standard Electronic Orientation quadrupole field applied
 Nucleus-field energy     =     0.0000000107 hartrees
 Guess from superposition of atomic densities
 Warning:  Energy on first SCF cycle will be non-variational
 An unrestricted Hartree-Fock SCF calculation will be
 performed using Pulay DIIS + Geometric Direct Minimization
 SCF converges when RMS gradient is below 1.0E-07
 ---------------------------------------
  Cycle       Energy         DIIS Error
 ---------------------------------------
    1    -436.5792512011      9.36E-02
    2    -434.9197592692      1.81E-02
    3    -435.1177362190      7.93E-03 Done DIIS. Switching to GDM
    4    -435.1509683771      3.69E-02 Normal BFGS step
    5    -435.1533762815      1.38E-02 Normal BFGS step
    6    -435.1539808987      5.86E-03 Normal BFGS step
    7    -435.1540544655      5.55E-03 Normal BFGS step
    8    -435.1541633852      4.87E-03 Normal BFGS step
    9    -435.1542722815      4.05E-03 Normal BFGS step
   10    -435.1544592166      3.38E-03 Normal BFGS step
   11    -435.1546455673      3.01E-03 Normal BFGS step
   12    -435.1547620576      1.89E-03 Normal BFGS step
   13    -435.1547943421      8.33E-04 Normal BFGS step
   14    -435.1547985446      2.95E-04 Normal BFGS step
   15    -435.1547992744      1.69E-04 Normal BFGS step
   16    -435.1547994497      1.67E-04 Normal BFGS step
   17    -435.1547995288      1.67E-04 Normal BFGS step
   18    -435.1547996184      1.67E-04 Normal BFGS step
   19    -435.1547998408      1.69E-04 Normal BFGS step
   20    -435.1548003574      1.85E-04 Normal BFGS step
   21    -435.1548017148      3.13E-04 Normal BFGS step
   22    -435.1548053338      5.29E-04 Normal BFGS step
   23    -435.1548148538      9.55E-04 Normal BFGS step
   24    -435.1548225687      2.30E-03 Normal BFGS step
   25    -435.1548470285      1.09E-03 Normal BFGS step
   26    -435.1549116464      2.15E-03 Normal BFGS step
   27    -435.1549314119      8.16E-04 Normal BFGS step
   28    -435.1549364927      3.29E-03 Normal BFGS step
   29    -435.1549625669      1.13E-03 Normal BFGS step
   30    -435.1549863033      6.81E-04 Dog-leg BFGS step
   31    -435.1549570539      1.01E-02 Line search: overstep
   32    -435.1550028774      1.12E-03 Dog-leg BFGS step
   33    -435.1550161755      1.31E-03 Normal BFGS step
   34    -435.1550230284      7.42E-04 Normal BFGS step
   35    -435.1550284874      1.34E-03 Normal BFGS step
   36    -435.1550350117      4.95E-04 Normal BFGS step
   37    -435.1550380577      3.62E-04 Normal BFGS step
   38    -435.1550392036      1.22E-04 Normal BFGS step
   39    -435.1550395201      2.99E-04 Normal BFGS step
   40    -435.1550397475      3.49E-05 Normal BFGS step
   41    -435.1550397649      2.10E-05 Normal BFGS step
   42    -435.1550397693      1.13E-05 Normal BFGS step
   43    -435.1550397709      9.52E-06 Normal BFGS step
   44    -435.1550397722      6.30E-06 Normal BFGS step
   45    -435.1550397728      5.03E-06 Normal BFGS step
   46    -435.1550397734      3.68E-06 Normal BFGS step
   47    -435.1550397736      1.84E-06 Normal BFGS step
   48    -435.1550397737      9.94E-07 Normal BFGS step
   49    -435.1550397737      2.45E-07 Normal BFGS step
   50    -435.1550397737      9.31E-08 Convergence criterion met
 ---------------------------------------
 <S^2> = 0.7534
 SCF time:  CPU 7.43 s  wall 21.92 s
 SCF   energy in the final basis set = -435.1550397737
 Total energy in the final basis set = -435.1550397737
================================================================================
|                                                                              |
|                                 A D C  M A N                                 |
|                                                                              |
 ------------------------------------------------------------------------------ 
|                                                                              |
| Components:                                                                  |
|                                                                              |
| - libvmm - 1.2-release                                                       |
|   Authors:                                                                   |
|   Evgeny Epifanovsky, Ilya Kaliman                                           |
|                                                                              |
| - libtensor - 2.4-trunk                                                      |
|   Authors:                                                                   |
|   Evgeny Epifanovsky, Michael Wormit, Dmitry Zuev, Sam Manzer                |
|                                                                              |
| - libwfa - 1.1-beta                                                          |
|   Authors:                                                                   |
|   Felix Plasser, Stefanie Baeppler, Benjamin Thomitzni, Michael Wormit       |
|                                                                              |
| - libadc - 1.0-beta                                                          |
|   Authors:                                                                   |
|   Michael Wormit, Philipp H. P. Harbach, Caroline Krauter, Dirk Rehn,        |
|   Matthias Schneider, Jan Wenzel                                             |
|                                                                              |
| - adcman - 2.4-beta                                                          |
|   Authors:                                                                   |
|   Michael Wormit, Philipp H. P. Harbach, Caroline Krauter, Dirk Rehn,        |
|   Jan Wenzel, Andreas Dreuw                                                  |
|                                                                              |
| Authors of earlier versions of ADCMAN:                                       |
| Andreas Dreuw, Jan Hendrik Starcke, Dirk Rehn, Michael Wormit                |
|                                                                              |
================================================================================

 
 Alpha MOs, Unrestricted
 -- Occupied --                  
-26.730 -26.729 -26.729 -26.711 -11.944  -2.166  -2.057  -2.055
  1 A     2 A     3 A     4 A     5 A     6 A     7 A     8 A                  
 -1.972  -1.317  -1.233  -1.233  -1.203  -1.139  -1.064  -1.060
  9 A    10 A    11 A    12 A    13 A    14 A    15 A    16 A                  
 -1.060  -1.032  -1.010  -1.002  -0.999
 17 A    18 A    19 A    20 A    21 A                                          
 -- Virtual --                   
 -0.159   0.071   0.221   0.227   0.392   0.424   0.432   0.479
 22 A    23 A    24 A    25 A    26 A    27 A    28 A    29 A                  
  0.946   0.960   0.993   1.018   1.019   1.054   1.241   1.243
 30 A    31 A    32 A    33 A    34 A    35 A    36 A    37 A                  
  1.251   1.289   1.292   1.315   1.323   1.351   1.455   1.602
 38 A    39 A    40 A    41 A    42 A    43 A    44 A    45 A                  
  1.607   1.621   1.718   1.722   1.779   1.789   1.789   1.946
 46 A    47 A    48 A    49 A    50 A    51 A    52 A    53 A                  
  1.949   1.979   1.979   2.023   2.031   2.050   2.054   2.190
 54 A    55 A    56 A    57 A    58 A    59 A    60 A    61 A                  
  2.366   2.709   2.714   2.733   3.020   3.029   3.268   3.272
 62 A    63 A    64 A    65 A    66 A    67 A    68 A    69 A                  
  3.304   3.835   4.373   4.969   4.993   6.698
 70 A    71 A    72 A    73 A    74 A    75 A                                  
 
 Beta MOs, Unrestricted
 -- Occupied --                  
-26.730 -26.729 -26.729 -26.662 -11.944  -2.164  -2.058  -2.054
  1 A     2 A     3 A     4 A     5 A     6 A     7 A     8 A                  
 -1.782  -1.316  -1.233  -1.233  -1.195  -1.061  -1.060  -1.052
  9 A    10 A    11 A    12 A    13 A    14 A    15 A    16 A                  
 -1.042  -1.010  -0.957  -0.952
 17 A    18 A    19 A    20 A                                                  
 -- Virtual --                   
 -0.209  -0.158   0.076   0.227   0.230   0.392   0.428   0.432
 21 A    22 A    23 A    24 A    25 A    26 A    27 A    28 A                  
  0.485   0.958   1.003   1.017   1.018   1.051   1.072   1.247
 29 A    30 A    31 A    32 A    33 A    34 A    35 A    36 A                  
  1.252   1.258   1.292   1.293   1.315   1.364   1.432   1.458
 37 A    38 A    39 A    40 A    41 A    42 A    43 A    44 A                  
  1.619   1.626   1.640   1.741   1.741   1.789   1.829   1.834
 45 A    46 A    47 A    48 A    49 A    50 A    51 A    52 A                  
  1.948   1.951   1.994   1.995   2.036   2.054   2.056   2.084
 53 A    54 A    55 A    56 A    57 A    58 A    59 A    60 A                  
  2.197   2.373   2.710   2.715   2.746   3.020   3.029   3.268
 61 A    62 A    63 A    64 A    65 A    66 A    67 A    68 A                  
  3.273   3.305   3.866   4.374   4.970   4.994   6.700
 69 A    70 A    71 A    72 A    73 A    74 A    75 A                          
 

--------------------------------------------------------------------------------
                                   HF Summary                                   
--------------------------------------------------------------------------------
  Energy:                                                 -435.1550397737 a.u.
  Dip. moment [a.u.]:                  [ -54.243528,  181.869144,    0.081802]
  Total dipole [Debye]:                                             482.388166
  <r^2> [a.u.]:                        [ 159.816218,  905.249206,   89.338695]
  Total <r^2> [a.u.]:                                              1154.404119
--------------------------------------------------------------------------------

--------------------------------------------------------------------------------
                                 MP(2) Summary                                  
--------------------------------------------------------------------------------
  Energy contribution:                                      -0.7425675706 a.u.
  Total energy:                                           -435.8976073443 a.u.
  Dip. moment [a.u.]:                  [ -54.224943,  181.920404,    0.061614]
  Total dipole [Debye]:                                             482.499506
  <r^2> [a.u.]:                        [ 159.561261,  905.876058,   89.130523]
  Total <r^2> [a.u.]:                                              1154.567842
--------------------------------------------------------------------------------
  Starting Davidson ... 
--------------------------------------------------------------------------------
   It NVec Conv  Avg. Norm  Max. Norm  Conv. states           Remark
--------------------------------------------------------------------------------
        20    0  2.094e-01  1.139e+00 10.9871 n n n n n n n n Guess.
    1   40    0  3.962e-02  4.374e-01 10.8317 n n n n n n n n 
    2   60    0  9.605e-03  1.172e-01 10.8302 n n n n n n n n 
    3   80    0  3.132e-03  3.642e-02 10.8302 n n n n n n n n 
    4  100    0  2.325e-03  3.149e-02 10.8302 n n n n n n n n 
    5   40    0  9.562e-04  1.364e-02 10.8302 n n n n n n n n Subspace collapsed.
    6   60    0  7.129e-04  1.011e-02 10.8302 n n n n n n n n 
    7   80    1  4.613e-04  6.533e-03 10.8302 y n n n n n n n 
    8  100    2  3.819e-04  7.089e-03 10.8302 y y n n n n n n 
    9   40    3  2.063e-04  3.879e-03 10.8302 y y n n n n y n Subspace collapsed.
   10   60    7  1.388e-04  2.611e-03 10.8302 y y y n y y y n 
   11   80   10  1.465e-04  2.875e-03 10.8302 y y y y y y y y 
   12  100   15  2.259e-04  4.485e-03 10.8302 y y y y y y y y 
   13   40   15  1.285e-04  2.554e-03 10.8302 y y y y y y y y Subspace collapsed.
   14   60   15  1.129e-04  2.244e-03 10.8302 y y y y y y y y 
   15   80   15  1.494e-04  2.980e-03 10.8302 y y y y y y y y 
   16   98   15  1.657e-04  3.305e-03 10.8302 y y y y y y y y 
   17  100   15  1.657e-04  3.304e-03 10.8302 y y y y y y y y 
   18   38   15  1.223e-04  2.442e-03 10.8302 y y y y y y y y Subspace collapsed.
   19   55   15  1.058e-04  2.111e-03 10.8302 y y y y y y y y 
   20   72   16  1.116e-04  2.229e-03 10.8302 y y y y y y y y 
   21   73   16  1.112e-04  2.220e-03 10.8302 y y y y y y y y 
   22   74   16  1.111e-04  2.219e-03 10.8302 y y y y y y y y 
   23   88   17  1.305e-04  2.606e-03 10.8302 y y y y y y y y 
   24  100   17  2.219e-04  4.435e-03 10.8302 y y y y y y y y 
   25   31   17  1.081e-04  2.160e-03 10.8302 y y y y y y y y Subspace collapsed.
   26   42   17  9.472e-05  1.894e-03 10.8302 y y y y y y y y 
   27   53   17  1.026e-04  2.052e-03 10.8302 y y y y y y y y 
   28   64   17  1.127e-04  2.254e-03 10.8302 y y y y y y y y 
   29   64   17  1.127e-04  2.254e-03 10.8302 y y y y y y y y 
   30   84   17  1.314e-04  2.628e-03 10.8302 y y y y y y y y 
   31   89   17  1.351e-04  2.702e-03 10.8302 y y y y y y y y 
   32   94   17  1.570e-04  3.140e-03 10.8302 y y y y y y y y 
   33   99   17  1.257e-04  2.513e-03 10.8302 y y y y y y y y 
   34  100   17  1.259e-04  2.519e-03 10.8302 y y y y y y y y 
   35   25   17  7.374e-05  1.475e-03 10.8302 y y y y y y y y Subspace collapsed.
   36   30   17  5.587e-05  1.117e-03 10.8302 y y y y y y y y 
   37   35   17  6.062e-05  1.212e-03 10.8302 y y y y y y y y 
   38   40   17  5.925e-05  1.185e-03 10.8302 y y y y y y y y 
   39   45   17  7.238e-05  1.448e-03 10.8302 y y y y y y y y 
   40   50   18  5.776e-05  1.155e-03 10.8302 y y y y y y y y 
   41   55   18  3.500e-05  6.999e-04 10.8302 y y y y y y y y 
   42   60   18  2.189e-05  4.377e-04 10.8302 y y y y y y y y 
   43   65   18  2.047e-05  4.093e-04 10.8302 y y y y y y y y 
   44   70   18  2.665e-05  5.330e-04 10.8302 y y y y y y y y 
   45   70   18  2.665e-05  5.330e-04 10.8302 y y y y y y y y 
   46   70   18  2.665e-05  5.330e-04 10.8302 y y y y y y y y 
   47   90   18  4.420e-05  8.841e-04 10.8302 y y y y y y y y 
   48   90   18  4.420e-05  8.841e-04 10.8302 y y y y y y y y 
   49   90   18  4.420e-05  8.841e-04 10.8302 y y y y y y y y 
   50   90   18  4.420e-05  8.841e-04 10.8302 y y y y y y y y 
   51  100   18  4.620e-05  9.241e-04 10.8302 y y y y y y y y 
   52   20   18  4.620e-05  9.241e-04 10.8302 y y y y y y y y Subspace collapsed.
   53   20   18  4.620e-05  9.241e-04 10.8302 y y y y y y y y 
   54   20   18  4.620e-05  9.241e-04 10.8302 y y y y y y y y 
   55   40   18  2.253e-05  4.507e-04 10.8302 y y y y y y y y 
   56   44   19  2.056e-05  4.112e-04 10.8302 y y y y y y y y 
   57   48   19  1.572e-05  3.144e-04 10.8302 y y y y y y y y 
   58   52   19  2.130e-05  4.260e-04 10.8302 y y y y y y y y 
   59   56   18  2.817e-05  5.635e-04 10.8302 y y y y y y y y 
--------------------------------------------------------------------------------
  Davidson Summary: 
 ------------------------------------------------------------
  State  0: excitation energy =  10.8302 a.u.   (converged)
  State  1: excitation energy =  10.9042 a.u.   (converged)
  State  2: excitation energy =  11.0380 a.u.   (converged)
  State  3: excitation energy =  11.1622 a.u.   (converged)
  State  4: excitation energy =  11.2321 a.u.   (converged)
  State  5: excitation energy =  11.2379 a.u.   (converged)
  State  6: excitation energy =  11.2452 a.u.   (converged)
  State  7: excitation energy =  11.3190 a.u.   (converged)
  State  8: excitation energy =  11.3260 a.u.   (converged)
  State  9: excitation energy =  11.5220 a.u.   (converged)
  State 10: excitation energy =  11.5732 a.u.   (converged)
  State 11: excitation energy =  11.5862 a.u.   (converged)
  State 12: excitation energy =  11.5896 a.u.   (converged)
  State 13: excitation energy =  11.6020 a.u.   (converged)
  State 14: excitation energy =  11.6035 a.u.   (converged)
  State 15: excitation energy =  11.6931 a.u.   (converged)
  State 16: excitation energy =  11.7146 a.u.   (converged)
  State 17: excitation energy =  12.1827 a.u.   (converged)
  State 18: excitation energy =  12.1923 a.u.   (not converged)
  State 19: excitation energy =  12.2011 a.u.   (not converged)
 ------------------------------------------------------------


--------------------------------------------------------------------------------
                             Excited State Summary
--------------------------------------------------------------------------------

  Excited state  1 (A)                                             [converged]
  ----------------------------------------------------------------------------
  Term symbol:  2 (-) A                                     R^2 =  2.48831e-14

  Total energy:                                           -425.0674145720 a.u.
  Excitation energy:                                             294.704533 eV

  Osc. strength:                                                      0.000022
  Trans. dip. moment [a.u.]:           [  -0.000578,   -0.001531,    0.000559]
  <i|r^2|0> [a.u.]:                    [   0.001222,   -0.015687,   -0.000304]

  V1^2 = 0.9604, V2^2 = 0.0396

  Important amplitudes:
     core i     occ j      vir a      vir b          v   
    ------------------------------------------------------
     5 (A) A              22 (A) A                -0.6602
     5 (A) B              22 (A) B                 0.6418
    ------------------------------------------------------
  ----------------------------------------------------------------------------


  Excited state  2 (A)                                             [converged]
  ----------------------------------------------------------------------------
  Term symbol:  3 (-) A                                     R^2 =  1.65528e-14

  Total energy:                                           -424.9934259577 a.u.
  Excitation energy:                                             296.717866 eV

  Osc. strength:                                                      0.116338
  Trans. dip. moment [a.u.]:           [  -0.042680,   -0.112054,    0.040323]
  <i|r^2|0> [a.u.]:                    [   0.090013,   -1.154388,   -0.022368]

  V1^2 = 0.9563, V2^2 = 0.0437

  Important amplitudes:
     core i     occ j      vir a      vir b          v   
    ------------------------------------------------------
     5 (A) B              22 (A) B                -0.6719
     5 (A) A              22 (A) A                -0.6545
    ------------------------------------------------------
  ----------------------------------------------------------------------------


  Excited state  3 (A)                                             [converged]
  ----------------------------------------------------------------------------
  Term symbol:  4 (-) A                                     R^2 =  6.92419e-14

  Total energy:                                           -424.8596144382 a.u.
  Excitation energy:                                             300.359062 eV

  Osc. strength:                                                      0.000001
  Trans. dip. moment [a.u.]:           [  -0.000236,    0.000160,    0.000094]
  <i|r^2|0> [a.u.]:                    [   0.000239,    0.001835,    0.000035]

  V1^2 = 0.8602, V2^2 = 0.1398

  Important amplitudes:
     core i     occ j      vir a      vir b          v   
    ------------------------------------------------------
     5 (A) B              21 (A) B                 0.9257
     5 (A) B   13 (A) A   22 (A) A   21 (A) B     -0.0750
    ------------------------------------------------------
  ----------------------------------------------------------------------------


  Excited state  4 (A)                                             [converged]
  ----------------------------------------------------------------------------
  Term symbol:  5 (-) A                                     R^2 =  6.02568e-14

  Total energy:                                           -424.7354022647 a.u.
  Excitation energy:                                             303.739048 eV

  Osc. strength:                                                      0.000000
  Trans. dip. moment [a.u.]:           [  -0.000099,   -0.000143,   -0.000025]
  <i|r^2|0> [a.u.]:                    [  -0.000051,   -0.001962,   -0.000247]

  V1^2 = 0.9326, V2^2 = 0.0674

  Important amplitudes:
     core i     occ j      vir a      vir b          v   
    ------------------------------------------------------
     5 (A) A              23 (A) A                -0.6273
     5 (A) B              23 (A) B                 0.6050
    ------------------------------------------------------
  ----------------------------------------------------------------------------


  Excited state  5 (A)                                             [converged]
  ----------------------------------------------------------------------------
  Term symbol:  6 (-) A                                     R^2 =  8.14329e-14

  Total energy:                                           -424.6655173590 a.u.
  Excitation energy:                                             305.640713 eV

  Osc. strength:                                                      0.004892
  Trans. dip. moment [a.u.]:           [  -0.006627,   -0.022023,    0.011152]
  <i|r^2|0> [a.u.]:                    [   0.032273,   -0.197939,    0.012079]

  V1^2 = 0.9213, V2^2 = 0.0787

  Important amplitudes:
     core i     occ j      vir a      vir b          v   
    ------------------------------------------------------
     5 (A) B              23 (A) B                 0.6576
     5 (A) A              23 (A) A                 0.6372
    ------------------------------------------------------
  ----------------------------------------------------------------------------


  Excited state  6 (A)                                             [converged]
  ----------------------------------------------------------------------------
  Term symbol:  7 (-) A                                     R^2 =  7.48142e-14

  Total energy:                                           -424.6597270599 a.u.
  Excitation energy:                                             305.798275 eV

  Osc. strength:                                                      0.000001
  Trans. dip. moment [a.u.]:           [  -0.000262,    0.000125,    0.000114]
  <i|r^2|0> [a.u.]:                    [   0.000592,    0.001292,   -0.000067]

  V1^2 = 0.9540, V2^2 = 0.0460

  Important amplitudes:
     core i     occ j      vir a      vir b          v   
    ------------------------------------------------------
     5 (A) A              27 (A) A                -0.4999
     5 (A) B              27 (A) B                 0.4843
    ------------------------------------------------------
  ----------------------------------------------------------------------------


  Excited state  7 (A)                                             [converged]
  ----------------------------------------------------------------------------
  Term symbol:  8 (-) A                                     R^2 =  5.47898e-14

  Total energy:                                           -424.6524317099 a.u.
  Excitation energy:                                             305.996791 eV

  Osc. strength:                                                      0.000000
  Trans. dip. moment [a.u.]:           [   0.000058,    0.000020,    0.000112]
  <i|r^2|0> [a.u.]:                    [  -0.000125,    0.000211,   -0.000052]

  V1^2 = 0.9537, V2^2 = 0.0463

  Important amplitudes:
     core i     occ j      vir a      vir b          v   
    ------------------------------------------------------
     5 (A) A              28 (A) A                -0.4986
     5 (A) B              28 (A) B                 0.4984
    ------------------------------------------------------
  ----------------------------------------------------------------------------


  Excited state  8 (A)                                             [converged]
  ----------------------------------------------------------------------------
  Term symbol:  9 (-) A                                     R^2 =  3.85722e-14

  Total energy:                                           -424.5786482421 a.u.
  Excitation energy:                                             308.004541 eV

  Osc. strength:                                                      0.121489
  Trans. dip. moment [a.u.]:           [   0.105436,   -0.055689,   -0.043380]
  <i|r^2|0> [a.u.]:                    [  -0.230233,   -0.571882,    0.028542]

  V1^2 = 0.9449, V2^2 = 0.0551

  Important amplitudes:
     core i     occ j      vir a      vir b          v   
    ------------------------------------------------------
     5 (A) B              25 (A) B                 0.5301
     5 (A) A              24 (A) A                 0.5176
    ------------------------------------------------------
  ----------------------------------------------------------------------------


  Excited state  9 (A)                                             [converged]
  ----------------------------------------------------------------------------
  Term symbol:  10 (-) A                                    R^2 =  2.07582e-14

  Total energy:                                           -424.5716474897 a.u.
  Excitation energy:                                             308.195042 eV

  Osc. strength:                                                      0.120556
  Trans. dip. moment [a.u.]:           [  -0.056164,   -0.019513,   -0.111496]
  <i|r^2|0> [a.u.]:                    [   0.122881,   -0.198788,    0.055372]

  V1^2 = 0.9446, V2^2 = 0.0554

  Important amplitudes:
     core i     occ j      vir a      vir b          v   
    ------------------------------------------------------
     5 (A) A              25 (A) A                -0.5181
     5 (A) B              24 (A) B                 0.5180
    ------------------------------------------------------
  ----------------------------------------------------------------------------


  Excited state 10 (A)                                             [converged]
  ----------------------------------------------------------------------------
  Term symbol:  11 (-) A                                    R^2 =  1.70633e-13

  Total energy:                                           -424.3755919685 a.u.
  Excitation energy:                                             313.529984 eV

  Osc. strength:                                                      0.000000
  Trans. dip. moment [a.u.]:           [  -0.000030,   -0.000089,    0.000034]
  <i|r^2|0> [a.u.]:                    [   0.000062,   -0.000920,   -0.000020]

  V1^2 = 0.9162, V2^2 = 0.0838

  Important amplitudes:
     core i     occ j      vir a      vir b          v   
    ------------------------------------------------------
     5 (A) B              26 (A) B                 0.6103
     5 (A) A              26 (A) A                -0.6062
    ------------------------------------------------------
  ----------------------------------------------------------------------------


  Excited state 11 (A)                                             [converged]
  ----------------------------------------------------------------------------
  Term symbol:  12 (-) A                                    R^2 =  5.19492e-14

  Total energy:                                           -424.3243696099 a.u.
  Excitation energy:                                             314.923815 eV

  Osc. strength:                                                      0.020266
  Trans. dip. moment [a.u.]:           [   0.017156,    0.045357,   -0.016584]
  <i|r^2|0> [a.u.]:                    [  -0.016631,    0.487283,    0.028612]

  V1^2 = 0.9170, V2^2 = 0.0830

  Important amplitudes:
     core i     occ j      vir a      vir b          v   
    ------------------------------------------------------
     5 (A) B              26 (A) B                -0.6452
     5 (A) A              26 (A) A                -0.6449
    ------------------------------------------------------
  ----------------------------------------------------------------------------


  Excited state 12 (A)                                             [converged]
  ----------------------------------------------------------------------------
  Term symbol:  13 (-) A                                    R^2 =  1.58971e-13

  Total energy:                                           -424.3113863278 a.u.
  Excitation energy:                                             315.277108 eV

  Osc. strength:                                                      0.002120
  Trans. dip. moment [a.u.]:           [  -0.013722,    0.007311,    0.005720]
  <i|r^2|0> [a.u.]:                    [   0.029669,    0.075150,   -0.003433]

  V1^2 = 0.8938, V2^2 = 0.1062

  Important amplitudes:
     core i     occ j      vir a      vir b          v   
    ------------------------------------------------------
     5 (A) A              27 (A) A                -0.5844
     5 (A) A              24 (A) A                 0.5747
    ------------------------------------------------------
  ----------------------------------------------------------------------------


  Excited state 13 (A)                                             [converged]
  ----------------------------------------------------------------------------
  Term symbol:  14 (-) A                                    R^2 =  1.25705e-13

  Total energy:                                           -424.3080403928 a.u.
  Excitation energy:                                             315.368156 eV

  Osc. strength:                                                      0.000032
  Trans. dip. moment [a.u.]:           [  -0.000871,   -0.000305,   -0.001815]
  <i|r^2|0> [a.u.]:                    [   0.001980,   -0.003010,    0.001025]

  V1^2 = 0.8939, V2^2 = 0.1061

  Important amplitudes:
     core i     occ j      vir a      vir b          v   
    ------------------------------------------------------
     5 (A) A              25 (A) A                 0.4941
     5 (A) A              28 (A) A                -0.4757
    ------------------------------------------------------
  ----------------------------------------------------------------------------


  Excited state 14 (A)                                             [converged]
  ----------------------------------------------------------------------------
  Term symbol:  15 (-) A                                    R^2 =  9.89286e-14

  Total energy:                                           -424.2956571732 a.u.
  Excitation energy:                                             315.705120 eV

  Osc. strength:                                                      0.025272
  Trans. dip. moment [a.u.]:           [   0.047463,   -0.025068,   -0.019654]
  <i|r^2|0> [a.u.]:                    [  -0.102687,   -0.257396,    0.011782]

  V1^2 = 0.8959, V2^2 = 0.1041

  Important amplitudes:
     core i     occ j      vir a      vir b          v   
    ------------------------------------------------------
     5 (A) B              27 (A) B                 0.6328
     5 (A) B              25 (A) B                -0.5216
    ------------------------------------------------------
  ----------------------------------------------------------------------------


  Excited state 15 (A)                                             [converged]
  ----------------------------------------------------------------------------
  Term symbol:  16 (-) A                                    R^2 =  1.16038e-13

  Total energy:                                           -424.2941278688 a.u.
  Excitation energy:                                             315.746735 eV

  Osc. strength:                                                      0.028206
  Trans. dip. moment [a.u.]:           [  -0.027203,   -0.009924,   -0.052989]
  <i|r^2|0> [a.u.]:                    [   0.059529,   -0.100739,    0.027756]

  V1^2 = 0.8974, V2^2 = 0.1026

  Important amplitudes:
     core i     occ j      vir a      vir b          v   
    ------------------------------------------------------
     5 (A) B              28 (A) B                -0.5290
     5 (A) A              28 (A) A                -0.4977
    ------------------------------------------------------
  ----------------------------------------------------------------------------


  Excited state 16 (A)                                             [converged]
  ----------------------------------------------------------------------------
  Term symbol:  17 (-) A                                    R^2 =  7.50081e-13

  Total energy:                                           -424.2045377352 a.u.
  Excitation energy:                                             318.184606 eV

  Osc. strength:                                                      0.000575
  Trans. dip. moment [a.u.]:           [   0.002727,    0.007562,   -0.003030]
  <i|r^2|0> [a.u.]:                    [  -0.008227,    0.075033,   -0.000809]

  V1^2 = 0.8948, V2^2 = 0.1052

  Important amplitudes:
     core i     occ j      vir a      vir b          v   
    ------------------------------------------------------
     5 (A) A              29 (A) A                 0.7403
     5 (A) B              29 (A) B                -0.4854
    ------------------------------------------------------
  ----------------------------------------------------------------------------


  Excited state 17 (A)                                             [converged]
  ----------------------------------------------------------------------------
  Term symbol:  18 (-) A                                    R^2 =  1.25298e-12

  Total energy:                                           -424.1830330169 a.u.
  Excitation energy:                                             318.769779 eV

  Osc. strength:                                                      0.013318
  Trans. dip. moment [a.u.]:           [   0.013353,    0.036432,   -0.014131]
  <i|r^2|0> [a.u.]:                    [  -0.039145,    0.362127,   -0.003209]

  V1^2 = 0.8955, V2^2 = 0.1045

  Important amplitudes:
     core i     occ j      vir a      vir b          v   
    ------------------------------------------------------
     5 (A) B              29 (A) B                 0.7602
     5 (A) A              29 (A) A                 0.5060
    ------------------------------------------------------
  ----------------------------------------------------------------------------


  Excited state 18 (A)                                             [converged]
  ----------------------------------------------------------------------------
  Term symbol:  19 (-) A                                    R^2 =  5.13625e-08

  Total energy:                                           -423.7148938441 a.u.
  Excitation energy:                                             331.508494 eV

  Osc. strength:                                                      0.000068
  Trans. dip. moment [a.u.]:           [   0.002431,   -0.001199,   -0.001029]
  <i|r^2|0> [a.u.]:                    [  -0.009578,   -0.006087,   -0.001455]

  V1^2 = 0.8807, V2^2 = 0.1193

  Important amplitudes:
     core i     occ j      vir a      vir b          v   
    ------------------------------------------------------
     5 (A) A              31 (A) A                 0.9059
     5 (A) A              37 (A) A                 0.1583
    ------------------------------------------------------
  ----------------------------------------------------------------------------


  Excited state 19 (A)                                         [not converged]
  ----------------------------------------------------------------------------
  Term symbol:  20 (-) A                                    R^2 =  1.02814e-06

  Total energy:                                           -423.7052982003 a.u.
  Excitation energy:                                             331.769605 eV


  V1^2 = 0.8800, V2^2 = 0.1200

  Important amplitudes:
     core i     occ j      vir a      vir b          v   
    ------------------------------------------------------
     5 (A) A              30 (A) A                -0.8344
     5 (A) A              35 (A) A                 0.2864
    ------------------------------------------------------
  ----------------------------------------------------------------------------


  Excited state 20 (A)                                         [not converged]
  ----------------------------------------------------------------------------
  Term symbol:  21 (-) A                                    R^2 =  5.63493e-04

  Total energy:                                           -423.6964878766 a.u.
  Excitation energy:                                             332.009346 eV


  V1^2 = 0.8793, V2^2 = 0.1207

  Important amplitudes:
     core i     occ j      vir a      vir b          v   
    ------------------------------------------------------
     5 (A) B              30 (A) B                -0.8433
     5 (A) A              30 (A) A                -0.2629
    ------------------------------------------------------
  ----------------------------------------------------------------------------


--------------------------------------------------------------------------------
  Time of ADC calculation:  CPU 1491.82 s  wall 1550.36 s
================================================================================
 
 --------------------------------------------------------------
 
                    Orbital Energies (a.u.)
 --------------------------------------------------------------
 
 Alpha MOs
 -- Occupied --
-26.730 -26.729 -26.729 -26.711 -11.944  -2.166  -2.057  -2.055
 -1.972  -1.317  -1.233  -1.233  -1.203  -1.139  -1.064  -1.060
 -1.060  -1.032  -1.010  -1.002  -0.999
 -- Virtual --
 -0.159   0.071   0.221   0.227   0.392   0.424   0.432   0.479
  0.946   0.960   0.993   1.018   1.019   1.054   1.241   1.243
  1.251   1.289   1.292   1.315   1.323   1.351   1.455   1.602
  1.607   1.621   1.718   1.722   1.779   1.789   1.789   1.946
  1.949   1.979   1.979   2.023   2.031   2.050   2.054   2.190
  2.366   2.709   2.714   2.733   3.020   3.029   3.268   3.272
  3.304   3.835   4.373   4.969   4.993   6.698
 
 Beta MOs
 -- Occupied --
-26.730 -26.729 -26.729 -26.662 -11.944  -2.164  -2.058  -2.054
 -1.782  -1.316  -1.233  -1.233  -1.195  -1.061  -1.060  -1.052
 -1.042  -1.010  -0.957  -0.952
 -- Virtual --
 -0.209  -0.158   0.076   0.227   0.230   0.392   0.428   0.432
  0.485   0.958   1.003   1.017   1.018   1.051   1.072   1.247
  1.252   1.258   1.292   1.293   1.315   1.364   1.432   1.458
  1.619   1.626   1.640   1.741   1.741   1.789   1.829   1.834
  1.948   1.951   1.994   1.995   2.036   2.054   2.056   2.084
  2.197   2.373   2.710   2.715   2.746   3.020   3.029   3.268
  3.273   3.305   3.866   4.374   4.970   4.994   6.700
 --------------------------------------------------------------
 
          Ground-State Mulliken Net Atomic Charges

     Atom                 Charge (a.u.)    Spin (a.u.)
  --------------------------------------------------------
      1 C                     1.316530      -0.008431
      2 F                    -0.129224       0.001788
      3 F                    -0.128334       0.001478
      4 F                     0.056709       1.007503
      5 F                    -0.115681      -0.002337
  --------------------------------------------------------
  Sum of atomic charges =     1.000000
  Sum of spin   charges =     1.000000

 -----------------------------------------------------------------
                    Cartesian Multipole Moments
 -----------------------------------------------------------------
    Charge (ESU x 10^10)
                 4.8032
    Dipole Moment (Debye)
         X      -3.0005      Y      12.3061      Z      -0.4231
       Tot      12.6737
    Quadrupole Moments (Debye-Ang)
        XX     -18.6323     XY      -7.2495     YY      12.2692
        XZ      -0.2123     YZ      -1.6686     ZZ     -20.8995
    Octopole Moments (Debye-Ang^2)
       XXX      41.3616    XXY     -44.8981    XYY      -3.8051
       YYY     -56.7615    XXZ       1.1677    XYZ      -0.0625
       YYZ      -5.3022    XZZ      13.6498    YZZ     -49.2442
       ZZZ       0.1040
    Hexadecapole Moments (Debye-Ang^3)
      XXXX    -126.1469   XXXY      97.6159   XXYY    -142.7018
      XYYY      53.2221   YYYY    -525.2330   XXXZ      -1.4796
      XXYZ       2.8837   XYYZ       0.3823   YYYZ     -13.1740
      XXZZ     -31.7546   XYZZ      31.5469   YYZZ    -141.1365
      XZZZ       0.9578   YZZZ       3.3652   ZZZZ     -69.8601
 -----------------------------------------------------------------
Archival summary:
1\1\tp-linux1\SP\HF\6-31G*\41(1+,2)\thomas\WedMar2215:22:202017WedMar2215:22:202017\0\\#,HF,6-31G*,\\1,2\C\F,1,1.21215\F,1,1.2186,2,120.144\F,1,1.21907,2,120.108,3,-176.852,0\F,1,1.88566,2,90.0729,3,-88.4682,0\\HF=-435.15504\\@

 Total job time:  1574.80s(wall), 1501.25s(cpu) 
 Wed Mar 22 15:22:20 2017

        *************************************************************
        *                                                           *
        *  Thank you very much for using Q-Chem.  Have a nice day.  *
        *                                                           *
        *************************************************************


0 sent ACK to 0 
now end server 0 ... 
cleanup process ... done
