
Running Job 1 of 1 ddtraj1t32.inp
qchem ddtraj1t32.inp_29251.0 /scratch/qchem/qchem29251/ 1
/mnt/software/qchem/bin/mpi/mpirun_qchem -machinefile /mnt/software/qchem/bin/mpi/machines -np 1 /mnt/software/qchem/exe/qcprog.exe ddtraj1t32.inp_29251.0 /scratch/qchem/qchem29251/

Process 0 of 1 is on tp-linux1 - thread support 0
initial socket setup ...start
initial socket setup ...done 
now start server 0 ... 

cmd = ssh tp-linux1 /mnt/software/qchem/bin/get_hostid 1633480137 > /scratch/qchem/qchem29251/lic.dat
                  Welcome to Q-Chem
     A Quantum Leap Into The Future Of Chemistry


 Q-Chem 4.3, Q-Chem, Inc., Pleasanton, CA (2015)

 Y. Shao,  Z. Gan,  E. Epifanovsky,  A. T. B. Gilbert,  M. Wormit,  
 J. Kussmann,  A. W. Lange,  A. Behn,  J. Deng,  X. Feng,  D. Ghosh,  
 M. Goldey,  P. R. Horn,  L. D. Jacobson,  I. Kaliman,  R. Z. Khaliullin,  
 T. Kus,  A. Landau,  J. Liu,  E. I. Proynov,  Y. M. Rhee,  R. M. Richard,  
 M. A. Rohrdanz,  R. P. Steele,  E. J. Sundstrom,  H. L. Woodcock III,  
 P. M. Zimmerman,  D. Zuev,  B. Albrecht,  E. Alguire,  B. Austin,  
 S. A. Baeppler,  G. J. O. Beran,  Y. A. Bernard,  E. Berquist,  
 K. Brandhorst,  K. B. Bravaya,  S. T. Brown,  D. Casanova,  C.-M. Chang,  
 Y. Chen,  S. H. Chien,  K. D. Closser,  D. L. Crittenden,  M. Diedenhofen,  
 R. A. DiStasio Jr.,  H. Do,  A. D. Dutoi,  R. G. Edgar,  P.-T. Fang,  
 S. Fatehi,  Q. Feng,  L. Fusti-Molnar,  A. Ghysels,  
 A. Golubeva-Zadorozhnaya,  J. Gomes,  A. Gunina,  M. W. D. Hanson-Heine,  
 P. H. P. Harbach,  A. W. Hauser,  E. G. Hohenstein,  Z. C. Holden,  K. Hui,  
 T.-C. Jagau,  H. Ji,  B. Kaduk,  K. Khistyaev,  Jaehoon Kim,  Jihan Kim,  
 R. A. King,  P. Klunzinger,  D. Kosenkov,  T. Kowalczyk,  C. M. Krauter,  
 K. U. Lao,  A. Laurent,  K. V. Lawler,  S. Lehtola,  S. V. Levchenko,  
 C. Y. Lin,  Y.-S. Lin,  F. Liu,  E. Livshits,  R. C. Lochan,  A. Luenser,  
 P. Manohar,  S. F. Manzer,  S.-P. Mao,  N. Mardirossian,  A. V. Marenich,  
 L. A. Martinez-Martinez,  S. A. Maurer,  N. J. Mayhall,  K. Nanda,  
 C. M. Oana,  R. Olivares-Amaya,  D. P. O'Neill,  J. A. Parkhill,  
 T. M. Perrine,  R. Peverati,  P. A. Pieniazek,  F. Plasser,  A. Prociuk,  
 D. R. Rehn,  E. Rosta,  N. J. Russ,  N. Sergueev,  S. M. Sharada,  
 S. Sharma,  D. W. Small,  A. Sodt,  T. Stauch,  T. Stein,  D. Stuck,  
 Y.-C. Su,  A. J. W. Thom,  T. Tsuchimochi,  L. Vogt,  O. Vydrov,  T. Wang,  
 M. A. Watson,  J. Wenzel,  A. White,  C. F. Williams,  V. Vanovschi,  
 S. Yeganeh,  S. R. Yost,  Z.-Q. You,  I. Y. Zhang,  X. Zhang,  Y. Zhao,  
 B. R. Brooks,  G. K. L. Chan,  D. M. Chipman,  C. J. Cramer,  
 W. A. Goddard III,  M. S. Gordon,  W. J. Hehre,  A. Klamt,  
 H. F. Schaefer III,  M. W. Schmidt,  C. D. Sherrill,  D. G. Truhlar,  
 A. Warshel,  X. Xu,  A. Aspuru-Guzik,  R. Baer,  A. T. Bell,  N. A. Besley,  
 J.-D. Chai,  A. Dreuw,  B. D. Dunietz,  T. R. Furlani,  S. R. Gwaltney,  
 C.-P. Hsu,  Y. Jung,  J. Kong,  D. S. Lambrecht,  W. Liang,  C. Ochsenfeld,  
 V. A. Rassolov,  L. V. Slipchenko,  J. E. Subotnik,  T. Van Voorhis,  
 J. M. Herbert,  A. I. Krylov,  P. M. W. Gill,  M. Head-Gordon

 Contributors to earlier versions of Q-Chem not listed above: 
 R. D. Adamson,  J. Baker,  E. F. C. Byrd,  A. K. Chakraborty,  C.-L. Cheng,  
 H. Dachsel,  R. J. Doerksen,  G. Hawkins,  A. Heyden,  S. Hirata,  
 G. Kedziora,  F. J. Keil,  C. Kelley,  P. P. Korambath,  W. Kurlancheek,  
 A. M. Lee,  M. S. Lee,  D. Liotard,  I. Lotan,  P. E. Maslen,  N. Nair,  
 D. Neuhauser,  R. Olson,  B. Peters,  J. Ritchie,  N. E. Schultz,  
 N. Shenvi,  A. C. Simmonett,  K. S. Thanthiriwatte,  Q. Wu,  W. Zhang

 Please cite Q-Chem as follows:
 Y. Shao et al., Mol. Phys. 113, 184-215 (2015)
 DOI: 10.1080/00268976.2014.952696

 Q-Chem 4.3.0 for Intel X86 Linux

 Parts of Q-Chem use Armadillo 5.200.1 (Boston Tea Smuggler).
 http://arma.sourceforge.net/

 Q-Chem begins on Wed Mar 22 13:03:07 2017  

Host: 
0

     Scratch files written to /scratch/qchem/qchem29251//
 Nov1815 1189b_ 19540  19532 5443   
 Parallel job on  1  processors
Processing $rem in /mnt/software/qchem/config/preferences.
 MEM_TOTAL  2000 

Checking the input file for inconsistencies... 	...done.

--------------------------------------------------------------
User input:
--------------------------------------------------------------
$comment
XAS calculation for valence excited states for CF4+ using cvs-adc(2) + 6-31G* basis set
job 1 - determination of HF orbitals
$end

$molecule
1 2
6  -0.546028  2.77297  -0.167629
9  0.626798  2.508895  -0.06857
9  -1.067381  3.431755  0.697765
9  -1.4023  0.434223  0.741288
9  -1.051303  2.756449  -1.264603
$end

$comment
cvs-adc(2) calculation
$end

$rem
mem_total 3000
mem_static 1500
sym_ignore true
method cvs-adc(2)
basis 6-31G*
ee_singlets 20
cc_rest_occ 5                  !only excitations from the lowest N orbitals
unrestricted  true
max_scf_cycles 200
SCF_ALGORITHM = DIIS_GDM
SCF_CONVERGENCE = 7
THRESH = 10
$end
--------------------------------------------------------------
 ----------------------------------------------------------------
             Standard Nuclear Orientation (Angstroms)
    I     Atom           X                Y                Z
 ----------------------------------------------------------------
    1      C      -0.5460280000     2.7729700000    -0.1676290000
    2      F       0.6267980000     2.5088950000    -0.0685700000
    3      F      -1.0673810000     3.4317550000     0.6977650000
    4      F      -1.4023000000     0.4342230000     0.7412880000
    5      F      -1.0513030000     2.7564490000    -1.2646030000
 ----------------------------------------------------------------
 Nuclear Repulsion Energy =   186.0856742749 hartrees
 There are       21 alpha and       20 beta electrons
 Requested basis set is 6-31G(d)
 There are 20 shells and 75 basis functions

 Total QAlloc Memory Limit   3000 MB
 Mega-Array Size      1467 MB
 MEM_STATIC part      1500 MB

                       Distance Matrix (Angstroms)
             C (  1)   F (  2)   F (  3)   F (  4)
   F (  2)  1.206262
   F (  3)  1.206115  2.075857
   F (  4)  2.651239  3.012868  3.016498
   F (  5)  1.207861  2.075524  2.075376  3.088613
 
 tim1(1): 
  0.000000000000000E+000
 tim1(2): 
  0.000000000000000E+000
 A cutoff of  1.0D-10 yielded    190 shell pairs
 There are      2914 function pairs
 
 -------------------------------------------------------
 OpenMP Integral Computing Module                       
 Release: version 1.0, May 2013, Q-Chem Inc. Pittsburgh 
 -------------------------------------------------------
 Integral Job Info:
 Integral job number is                      11
 Integral operator is                         1
 short-range coefficients                     0
 long-range coefficients              100000000
 Omega coefficients                           0
 if combine SR and LR in K                    0
 Integral screening is                        0
 Integral computing path is                   2
 max size of driver memory is            800000
 size of driver memory is                593474
 size of scratch memory is              2260544
 max col of scratch BK array               1296
 max len of scratch array in speh3          155
 max len of scratch index in speh4           18
 max int batch size is                      520
 min int batch size is                       52
 fixed nKL is                                52
 max L of basis functions is                  2
 order of int derivative is                   0
 number of shells is                         20
 number of basis is                          75
 number of cartesian basis is                75
 number of contracted shell pairs           190
 number of primitive shell pairs            959
 maxK2 (contraction) of shell pair           36
 max number of K2 of shell pair               1
 max number of CS2 of shell pair             32
 max number of PS2 of shell pair            192
 mem total for path MDJ                   18100
 -------------------------------------------------------
 Smallest overlap matrix eigenvalue = 3.43E-03

 Scale SEOQF with 1.000000e+00/1.000000e-01/1.000000e+00

 Standard Electronic Orientation quadrupole field applied
 Nucleus-field energy     =     0.0000000097 hartrees
 Guess from superposition of atomic densities
 Warning:  Energy on first SCF cycle will be non-variational
 An unrestricted Hartree-Fock SCF calculation will be
 performed using Pulay DIIS + Geometric Direct Minimization
 SCF converges when RMS gradient is below 1.0E-07
 ---------------------------------------
  Cycle       Energy         DIIS Error
 ---------------------------------------
    1    -436.5188294035      9.50E-02
    2    -434.9897691219      1.77E-02
    3    -435.1405215261      8.01E-03 Done DIIS. Switching to GDM
    4    -435.1697187746      9.08E-03 Normal BFGS step
    5    -435.1706730160      8.30E-03 Normal BFGS step
    6    -435.1709909274      2.85E-03 Normal BFGS step
    7    -435.1710221190      2.84E-03 Normal BFGS step
    8    -435.1710400280      2.81E-03 Normal BFGS step
    9    -435.1710693417      2.70E-03 Normal BFGS step
   10    -435.1711239471      2.37E-03 Normal BFGS step
   11    -435.1712119902      2.02E-03 Normal BFGS step
   12    -435.1713018090      1.91E-03 Normal BFGS step
   13    -435.1713459868      8.76E-04 Normal BFGS step
   14    -435.1713536895      1.66E-04 Normal BFGS step
   15    -435.1713541768      7.23E-05 Normal BFGS step
   16    -435.1713542164      3.05E-05 Normal BFGS step
   17    -435.1713542202      1.74E-05 Normal BFGS step
   18    -435.1713542216      1.74E-05 Normal BFGS step
   19    -435.1713542223      1.74E-05 Normal BFGS step
   20    -435.1713542233      1.74E-05 Normal BFGS step
   21    -435.1713542253      1.74E-05 Normal BFGS step
   22    -435.1713542299      3.02E-05 Normal BFGS step
   23    -435.1713542412      5.43E-05 Normal BFGS step
   24    -435.1713542704      9.34E-05 Normal BFGS step
   25    -435.1713543469      1.57E-04 Normal BFGS step
   26    -435.1713545516      2.67E-04 Normal BFGS step
   27    -435.1713550099      4.52E-04 Normal BFGS step
   28    -435.1713555804      5.84E-04 Normal BFGS step
   29    -435.1713570489      1.16E-03 Normal BFGS step
   30    -435.1713592518      1.94E-04 Normal BFGS step
   31    -435.1713599353      6.07E-04 Normal BFGS step
   32    -435.1713607950      7.49E-04 Normal BFGS step
   33    -435.1713627933      5.30E-04 Normal BFGS step
   34    -435.1713638189      1.14E-03 Normal BFGS step
   35    -435.1713664324      3.96E-04 Normal BFGS step
   36    -435.1713669980      1.19E-03 Normal BFGS step
   37    -435.1713689527      2.17E-04 Normal BFGS step
   38    -435.1713700767      3.60E-04 Normal BFGS step
   39    -435.1713698706      5.07E-03 Line search: overstep
   40    -435.1713709768      6.87E-04 Normal BFGS step
   41    -435.1713724683      5.54E-04 Normal BFGS step
   42    -435.1713736415      3.37E-04 Normal BFGS step
   43    -435.1713731710      4.96E-03 Line search: overstep
   44    -435.1713743218      6.19E-04 Dog-leg BFGS step
   45    -435.1713761780      4.29E-04 Normal BFGS step
   46    -435.1713770219      2.66E-04 Normal BFGS step
   47    -435.1713661456      9.92E-03 Line search: overstep
   48    -435.1713773508      1.97E-04 Dog-leg BFGS step
   49    -435.1713775119      9.25E-04 Normal BFGS step
   50    -435.1713781947      8.86E-05 Normal BFGS step
   51    -435.1713784714      8.45E-05 Normal BFGS step
   52    -435.1713779059      3.39E-03 Line search: overstep
   53    -435.1713787333      2.38E-04 Normal BFGS step
   54    -435.1713789055      3.62E-04 Normal BFGS step
   55    -435.1713790664      1.36E-04 Normal BFGS step
   56    -435.1713791535      8.25E-05 Normal BFGS step
   57    -435.1713791906      6.39E-05 Normal BFGS step
   58    -435.1713792074      6.83E-05 Normal BFGS step
   59    -435.1713792294      7.15E-05 Normal BFGS step
   60    -435.1713792785      7.10E-05 Normal BFGS step
   61    -435.1713793237      1.53E-04 Normal BFGS step
   62    -435.1713794562      8.28E-05 Normal BFGS step
   63    -435.1713795055      4.73E-05 Normal BFGS step
   64    -435.1713795372      6.16E-05 Normal BFGS step
   65    -435.1713795451      3.60E-05 Normal BFGS step
   66    -435.1713795501      2.56E-05 Normal BFGS step
   67    -435.1713795565      1.35E-05 Normal BFGS step
   68    -435.1713795582      1.36E-05 Normal BFGS step
   69    -435.1713795596      3.96E-06 Normal BFGS step
   70    -435.1713795597      2.30E-06 Normal BFGS step
   71    -435.1713795597      5.02E-07 Normal BFGS step
   72    -435.1713795597      2.16E-07 Normal BFGS step
   73    -435.1713795597      9.16E-08 Convergence criterion met
 ---------------------------------------
 <S^2> = 0.7532
 SCF time:  CPU 10.34 s  wall 14.60 s
 SCF   energy in the final basis set = -435.1713795597
 Total energy in the final basis set = -435.1713795597
================================================================================
|                                                                              |
|                                 A D C  M A N                                 |
|                                                                              |
 ------------------------------------------------------------------------------ 
|                                                                              |
| Components:                                                                  |
|                                                                              |
| - libvmm - 1.2-release                                                       |
|   Authors:                                                                   |
|   Evgeny Epifanovsky, Ilya Kaliman                                           |
|                                                                              |
| - libtensor - 2.4-trunk                                                      |
|   Authors:                                                                   |
|   Evgeny Epifanovsky, Michael Wormit, Dmitry Zuev, Sam Manzer                |
|                                                                              |
| - libwfa - 1.1-beta                                                          |
|   Authors:                                                                   |
|   Felix Plasser, Stefanie Baeppler, Benjamin Thomitzni, Michael Wormit       |
|                                                                              |
| - libadc - 1.0-beta                                                          |
|   Authors:                                                                   |
|   Michael Wormit, Philipp H. P. Harbach, Caroline Krauter, Dirk Rehn,        |
|   Matthias Schneider, Jan Wenzel                                             |
|                                                                              |
| - adcman - 2.4-beta                                                          |
|   Authors:                                                                   |
|   Michael Wormit, Philipp H. P. Harbach, Caroline Krauter, Dirk Rehn,        |
|   Jan Wenzel, Andreas Dreuw                                                  |
|                                                                              |
| Authors of earlier versions of ADCMAN:                                       |
| Andreas Dreuw, Jan Hendrik Starcke, Dirk Rehn, Michael Wormit                |
|                                                                              |
================================================================================

 
 Alpha MOs, Unrestricted
 -- Occupied --                  
-26.743 -26.743 -26.742 -26.627 -11.946  -2.180  -2.068  -2.067
  1 A     2 A     3 A     4 A     5 A     6 A     7 A     8 A                  
 -1.876  -1.324  -1.245  -1.245  -1.194  -1.073  -1.073  -1.047
  9 A    10 A    11 A    12 A    13 A    14 A    15 A    16 A                  
 -1.043  -1.039  -1.018  -0.937  -0.934
 17 A    18 A    19 A    20 A    21 A                                          
 -- Virtual --                   
 -0.199   0.045   0.205   0.206   0.362   0.422   0.422   0.438
 22 A    23 A    24 A    25 A    26 A    27 A    28 A    29 A                  
  0.944   1.012   1.013   1.014   1.091   1.107   1.186   1.229
 30 A    31 A    32 A    33 A    34 A    35 A    36 A    37 A                  
  1.242   1.279   1.281   1.290   1.290   1.311   1.405   1.531
 38 A    39 A    40 A    41 A    42 A    43 A    44 A    45 A                  
  1.649   1.651   1.745   1.749   1.786   1.789   1.810   1.817
 46 A    47 A    48 A    49 A    50 A    51 A    52 A    53 A                  
  1.847   1.865   1.988   1.989   1.993   2.013   2.023   2.091
 54 A    55 A    56 A    57 A    58 A    59 A    60 A    61 A                  
  2.159   2.477   2.681   2.683   3.022   3.023   3.235   3.236
 62 A    63 A    64 A    65 A    66 A    67 A    68 A    69 A                  
  3.267   3.634   4.287   4.834   4.837   4.897
 70 A    71 A    72 A    73 A    74 A    75 A                                  
 
 Beta MOs, Unrestricted
 -- Occupied --                  
-26.743 -26.743 -26.742 -26.578 -11.946  -2.180  -2.069  -2.067
  1 A     2 A     3 A     4 A     5 A     6 A     7 A     8 A                  
 -1.682  -1.324  -1.245  -1.245  -1.194  -1.073  -1.073  -1.044
  9 A    10 A    11 A    12 A    13 A    14 A    15 A    16 A                  
 -1.043  -1.018  -0.882  -0.881
 17 A    18 A    19 A    20 A                                                  
 -- Virtual --                   
 -0.198  -0.124   0.045   0.206   0.209   0.366   0.422   0.424
 21 A    22 A    23 A    24 A    25 A    26 A    27 A    28 A                  
  0.440   0.965   1.012   1.013   1.022   1.109   1.114   1.246
 29 A    30 A    31 A    32 A    33 A    34 A    35 A    36 A                  
  1.257   1.276   1.283   1.288   1.291   1.311   1.382   1.405
 37 A    38 A    39 A    40 A    41 A    42 A    43 A    44 A                  
  1.542   1.651   1.652   1.750   1.751   1.786   1.819   1.835
 45 A    46 A    47 A    48 A    49 A    50 A    51 A    52 A                  
  1.850   1.935   1.938   1.988   1.989   2.015   2.026   2.033
 53 A    54 A    55 A    56 A    57 A    58 A    59 A    60 A                  
  2.091   2.169   2.481   2.681   2.683   3.022   3.023   3.235
 61 A    62 A    63 A    64 A    65 A    66 A    67 A    68 A                  
  3.236   3.269   3.671   4.288   4.834   4.837   4.898
 69 A    70 A    71 A    72 A    73 A    74 A    75 A                          
 

--------------------------------------------------------------------------------
                                   HF Summary                                   
--------------------------------------------------------------------------------
  Energy:                                                 -435.1713795597 a.u.
  Dip. moment [a.u.]:                  [ -54.300030,  181.724177,    0.131297]
  Total dipole [Debye]:                                             482.076246
  <r^2> [a.u.]:                        [ 168.212149,  984.950815,  100.851673]
  Total <r^2> [a.u.]:                                              1254.014637
--------------------------------------------------------------------------------

--------------------------------------------------------------------------------
                                 MP(2) Summary                                  
--------------------------------------------------------------------------------
  Energy contribution:                                      -0.7390127757 a.u.
  Total energy:                                           -435.9103923354 a.u.
  Dip. moment [a.u.]:                  [ -54.321216,  181.670398,    0.149352]
  Total dipole [Debye]:                                             481.960736
  <r^2> [a.u.]:                        [ 168.038494,  984.426655,  100.607223]
  Total <r^2> [a.u.]:                                              1253.072372
--------------------------------------------------------------------------------
  Starting Davidson ... 
--------------------------------------------------------------------------------
   It NVec Conv  Avg. Norm  Max. Norm  Conv. states           Remark
--------------------------------------------------------------------------------
        20    0  2.098e-01  1.138e+00 10.9753 n n n n n n n n Guess.
    1   40    0  3.590e-02  4.815e-01 10.8126 n n n n n n n n 
    2   60    0  7.438e-03  7.193e-02 10.8112 n n n n n n n n 
    3   80    0  2.522e-03  2.714e-02 10.8111 n n n n n n n n 
    4  100    0  1.341e-03  1.700e-02 10.8111 n n n n n n n n 
    5   40    0  8.931e-04  1.129e-02 10.8111 n n n n n n n n Subspace collapsed.
    6   60    0  8.677e-04  1.324e-02 10.8111 n n n n n n n n 
    7   80    0  9.805e-04  1.648e-02 10.8111 n n n n n n n n 
    8  100    3  1.346e-03  2.594e-02 10.8111 y y n y n n n n 
    9   40    6  6.462e-04  1.223e-02 10.8111 y y n y n y y n Subspace collapsed.
   10   60    9  5.371e-04  1.038e-02 10.8111 y y y y y y y y 
   11   80   10  3.624e-04  7.067e-03 10.8111 y y y y y y y y 
   12  100   13  4.479e-04  8.816e-03 10.8111 y y y y y y y y 
   13   40   15  2.711e-04  5.295e-03 10.8111 y y y y y y y y Subspace collapsed.
   14   60   16  4.281e-04  8.466e-03 10.8111 y y y y y y y y 
   15   80   16  5.020e-04  9.984e-03 10.8111 y y y y y y y y 
   16  100   17  7.513e-04  1.500e-02 10.8111 y y y y y y y y 
   17   38   17  3.669e-04  7.315e-03 10.8111 y y y y y y y y Subspace collapsed.
   18   39   17  3.686e-04  7.349e-03 10.8111 y y y y y y y y 
   19   40   17  3.714e-04  7.406e-03 10.8111 y y y y y y y y 
   20   57   17  3.343e-04  6.673e-03 10.8111 y y y y y y y y 
   21   72   17  2.426e-04  4.844e-03 10.8111 y y y y y y y y 
   22   73   17  2.440e-04  4.872e-03 10.8111 y y y y y y y y 
   23   84   17  2.491e-04  4.975e-03 10.8111 y y y y y y y y 
   24   95   17  4.693e-04  9.381e-03 10.8111 y y y y y y y y 
   25  100   17  4.756e-04  9.507e-03 10.8111 y y y y y y y y 
   26   31   17  2.486e-04  4.969e-03 10.8111 y y y y y y y y Subspace collapsed.
   27   42   17  2.003e-04  4.003e-03 10.8111 y y y y y y y y 
   28   53   17  2.286e-04  4.568e-03 10.8111 y y y y y y y y 
   29   55   17  2.284e-04  4.566e-03 10.8111 y y y y y y y y 
   30   57   17  2.282e-04  4.561e-03 10.8111 y y y y y y y y 
   31   58   17  2.282e-04  4.561e-03 10.8111 y y y y y y y y 
   32   59   17  2.278e-04  4.554e-03 10.8111 y y y y y y y y 
   33   59   17  2.278e-04  4.554e-03 10.8111 y y y y y y y y 
   34   79   17  2.511e-04  5.019e-03 10.8111 y y y y y y y y 
   35   79   17  2.511e-04  5.019e-03 10.8111 y y y y y y y y 
   36   81   17  2.520e-04  5.036e-03 10.8111 y y y y y y y y 
   37   81   17  2.520e-04  5.036e-03 10.8111 y y y y y y y y 
   38   81   17  2.520e-04  5.036e-03 10.8111 y y y y y y y y 
   39  100   17  3.230e-04  6.456e-03 10.8111 y y y y y y y y 
   40   20   17  3.230e-04  6.456e-03 10.8111 y y y y y y y y Subspace collapsed.
   41   20   17  3.230e-04  6.456e-03 10.8111 y y y y y y y y 
   42   20   17  3.230e-04  6.456e-03 10.8111 y y y y y y y y 
   43   40   17  1.821e-04  3.639e-03 10.8111 y y y y y y y y 
   44   44   17  1.833e-04  3.664e-03 10.8111 y y y y y y y y 
   45   48   17  1.513e-04  3.024e-03 10.8111 y y y y y y y y 
   46   52   17  1.711e-04  3.418e-03 10.8111 y y y y y y y y 
   47   56   17  2.011e-04  4.018e-03 10.8111 y y y y y y y y 
   48   60   17  2.288e-04  4.572e-03 10.8111 y y y y y y y y 
   49   64   17  1.717e-04  3.427e-03 10.8111 y y y y y y y y 
   50   68   17  1.915e-04  3.824e-03 10.8111 y y y y y y y y 
   51   68   17  1.915e-04  3.824e-03 10.8111 y y y y y y y y 
   52   69   17  1.925e-04  3.842e-03 10.8111 y y y y y y y y 
   53   69   17  1.925e-04  3.842e-03 10.8111 y y y y y y y y 
   54   69   17  1.925e-04  3.842e-03 10.8111 y y y y y y y y 
   55   69   17  1.925e-04  3.842e-03 10.8111 y y y y y y y y 
   56   89   17  1.643e-04  3.280e-03 10.8111 y y y y y y y y 
   57   92   17  1.406e-04  2.806e-03 10.8111 y y y y y y y y 
   58   95   17  1.097e-04  2.191e-03 10.8111 y y y y y y y y 
   59   98   17  6.945e-05  1.384e-03 10.8111 y y y y y y y y 
--------------------------------------------------------------------------------
  Davidson Summary: 
 ------------------------------------------------------------
  State  0: excitation energy =  10.8111 a.u.   (converged)
  State  1: excitation energy =  10.8826 a.u.   (converged)
  State  2: excitation energy =  11.1718 a.u.   (converged)
  State  3: excitation energy =  11.1952 a.u.   (converged)
  State  4: excitation energy =  11.2286 a.u.   (converged)
  State  5: excitation energy =  11.2428 a.u.   (converged)
  State  6: excitation energy =  11.2449 a.u.   (converged)
  State  7: excitation energy =  11.3223 a.u.   (converged)
  State  8: excitation energy =  11.3243 a.u.   (converged)
  State  9: excitation energy =  11.5332 a.u.   (converged)
  State 10: excitation energy =  11.5622 a.u.   (converged)
  State 11: excitation energy =  11.5711 a.u.   (converged)
  State 12: excitation energy =  11.5726 a.u.   (converged)
  State 13: excitation energy =  11.5746 a.u.   (converged)
  State 14: excitation energy =  11.5865 a.u.   (converged)
  State 15: excitation energy =  11.5867 a.u.   (converged)
  State 16: excitation energy =  11.6112 a.u.   (converged)
  State 17: excitation energy =  12.2216 a.u.   (not converged)
  State 18: excitation energy =  12.2227 a.u.   (not converged)
  State 19: excitation energy =  12.2283 a.u.   (not converged)
 ------------------------------------------------------------


--------------------------------------------------------------------------------
                             Excited State Summary
--------------------------------------------------------------------------------

  Excited state  1 (A)                                             [converged]
  ----------------------------------------------------------------------------
  Term symbol:  2 (-) A                                     R^2 =  6.86144e-14

  Total energy:                                           -425.0992756386 a.u.
  Excitation energy:                                             294.185447 eV

  Osc. strength:                                                      0.000000
  Trans. dip. moment [a.u.]:           [   0.000075,    0.000192,   -0.000065]
  <i|r^2|0> [a.u.]:                    [  -0.000161,    0.001984,    0.000036]

  V1^2 = 0.9585, V2^2 = 0.0415

  Important amplitudes:
     core i     occ j      vir a      vir b          v   
    ------------------------------------------------------
     5 (A) A              22 (A) A                 0.6572
     5 (A) B              21 (A) B                -0.6547
    ------------------------------------------------------
  ----------------------------------------------------------------------------


  Excited state  2 (A)                                             [converged]
  ----------------------------------------------------------------------------
  Term symbol:  3 (-) A                                     R^2 =  3.30423e-14

  Total energy:                                           -425.0277966532 a.u.
  Excitation energy:                                             296.130489 eV

  Osc. strength:                                                      0.105512
  Trans. dip. moment [a.u.]:           [   0.041807,    0.107065,   -0.036503]
  <i|r^2|0> [a.u.]:                    [  -0.091425,    1.114243,    0.018091]

  V1^2 = 0.9539, V2^2 = 0.0461

  Important amplitudes:
     core i     occ j      vir a      vir b          v   
    ------------------------------------------------------
     5 (A) B              21 (A) B                 0.6680
     5 (A) A              22 (A) A                 0.6649
    ------------------------------------------------------
  ----------------------------------------------------------------------------


  Excited state  3 (A)                                             [converged]
  ----------------------------------------------------------------------------
  Term symbol:  4 (-) A                                     R^2 =  4.36990e-14

  Total energy:                                           -424.7385546820 a.u.
  Excitation energy:                                             304.001163 eV

  Osc. strength:                                                      0.000001
  Trans. dip. moment [a.u.]:           [  -0.000095,   -0.000243,    0.000082]
  <i|r^2|0> [a.u.]:                    [   0.000166,   -0.002624,   -0.000082]

  V1^2 = 0.9292, V2^2 = 0.0708

  Important amplitudes:
     core i     occ j      vir a      vir b          v   
    ------------------------------------------------------
     5 (A) A              23 (A) A                -0.6055
     5 (A) B              23 (A) B                 0.6009
    ------------------------------------------------------
  ----------------------------------------------------------------------------


  Excited state  4 (A)                                             [converged]
  ----------------------------------------------------------------------------
  Term symbol:  5 (-) A                                     R^2 =  6.00177e-14

  Total energy:                                           -424.7152383276 a.u.
  Excitation energy:                                             304.635634 eV

  Osc. strength:                                                      0.000036
  Trans. dip. moment [a.u.]:           [   0.001811,   -0.000975,   -0.000756]
  <i|r^2|0> [a.u.]:                    [  -0.003945,   -0.010094,    0.000567]

  V1^2 = 0.8563, V2^2 = 0.1437

  Important amplitudes:
     core i     occ j      vir a      vir b          v   
    ------------------------------------------------------
     5 (A) B              22 (A) B                 0.9229
     5 (A) B   13 (A) A   22 (A) A   22 (A) B     -0.0662
    ------------------------------------------------------
  ----------------------------------------------------------------------------


  Excited state  5 (A)                                             [converged]
  ----------------------------------------------------------------------------
  Term symbol:  6 (-) A                                     R^2 =  1.74825e-14

  Total energy:                                           -424.6818368722 a.u.
  Excitation energy:                                             305.544533 eV

  Osc. strength:                                                      0.008046
  Trans. dip. moment [a.u.]:           [  -0.011062,   -0.028970,    0.010644]
  <i|r^2|0> [a.u.]:                    [   0.008095,   -0.329061,   -0.021007]

  V1^2 = 0.9180, V2^2 = 0.0820

  Important amplitudes:
     core i     occ j      vir a      vir b          v   
    ------------------------------------------------------
     5 (A) B              23 (A) B                -0.6430
     5 (A) A              23 (A) A                -0.6386
    ------------------------------------------------------
  ----------------------------------------------------------------------------


  Excited state  6 (A)                                             [converged]
  ----------------------------------------------------------------------------
  Term symbol:  7 (-) A                                     R^2 =  3.83576e-14

  Total energy:                                           -424.6676116862 a.u.
  Excitation energy:                                             305.931620 eV

  Osc. strength:                                                      0.000000
  Trans. dip. moment [a.u.]:           [   0.000011,    0.000022,    0.000035]
  <i|r^2|0> [a.u.]:                    [  -0.000015,    0.000242,   -0.000012]

  V1^2 = 0.9535, V2^2 = 0.0465

  Important amplitudes:
     core i     occ j      vir a      vir b          v   
    ------------------------------------------------------
     5 (A) B              27 (A) B                 0.5144
     5 (A) A              27 (A) A                -0.5133
    ------------------------------------------------------
  ----------------------------------------------------------------------------


  Excited state  7 (A)                                             [converged]
  ----------------------------------------------------------------------------
  Term symbol:  8 (-) A                                     R^2 =  3.45846e-14

  Total energy:                                           -424.6655349092 a.u.
  Excitation energy:                                             305.988132 eV

  Osc. strength:                                                      0.000001
  Trans. dip. moment [a.u.]:           [   0.000240,   -0.000129,   -0.000098]
  <i|r^2|0> [a.u.]:                    [  -0.000519,   -0.001337,    0.000074]

  V1^2 = 0.9531, V2^2 = 0.0469

  Important amplitudes:
     core i     occ j      vir a      vir b          v   
    ------------------------------------------------------
     5 (A) A              28 (A) A                 0.5189
     5 (A) B              28 (A) B                -0.5128
    ------------------------------------------------------
  ----------------------------------------------------------------------------


  Excited state  8 (A)                                             [converged]
  ----------------------------------------------------------------------------
  Term symbol:  9 (-) A                                     R^2 =  1.89213e-14

  Total energy:                                           -424.5881062149 a.u.
  Excitation energy:                                             308.095074 eV

  Osc. strength:                                                      0.117584
  Trans. dip. moment [a.u.]:           [   0.059377,    0.013918,    0.108896]
  <i|r^2|0> [a.u.]:                    [  -0.126872,    0.144147,   -0.062612]

  V1^2 = 0.9440, V2^2 = 0.0560

  Important amplitudes:
     core i     occ j      vir a      vir b          v   
    ------------------------------------------------------
     5 (A) B              24 (A) B                 0.5053
     5 (A) A              25 (A) A                 0.5049
    ------------------------------------------------------
  ----------------------------------------------------------------------------


  Excited state  9 (A)                                             [converged]
  ----------------------------------------------------------------------------
  Term symbol:  10 (-) A                                    R^2 =  3.20371e-14

  Total energy:                                           -424.5860946081 a.u.
  Excitation energy:                                             308.149813 eV

  Osc. strength:                                                      0.117382
  Trans. dip. moment [a.u.]:           [  -0.100792,    0.055692,    0.047829]
  <i|r^2|0> [a.u.]:                    [   0.215191,    0.581009,   -0.034816]

  V1^2 = 0.9438, V2^2 = 0.0562

  Important amplitudes:
     core i     occ j      vir a      vir b          v   
    ------------------------------------------------------
     5 (A) B              25 (A) B                -0.5071
     5 (A) A              24 (A) A                -0.5012
    ------------------------------------------------------
  ----------------------------------------------------------------------------


  Excited state 10 (A)                                             [converged]
  ----------------------------------------------------------------------------
  Term symbol:  11 (-) A                                    R^2 =  4.14727e-14

  Total energy:                                           -424.3772342741 a.u.
  Excitation energy:                                             313.833192 eV

  Osc. strength:                                                      0.000002
  Trans. dip. moment [a.u.]:           [  -0.000171,   -0.000444,    0.000154]
  <i|r^2|0> [a.u.]:                    [   0.000417,   -0.004586,   -0.000034]

  V1^2 = 0.9123, V2^2 = 0.0877

  Important amplitudes:
     core i     occ j      vir a      vir b          v   
    ------------------------------------------------------
     5 (A) A              29 (A) A                 0.5549
     5 (A) B              29 (A) B                -0.5447
    ------------------------------------------------------
  ----------------------------------------------------------------------------


  Excited state 11 (A)                                             [converged]
  ----------------------------------------------------------------------------
  Term symbol:  12 (-) A                                    R^2 =  3.20140e-14

  Total energy:                                           -424.3481526701 a.u.
  Excitation energy:                                             314.624542 eV

  Osc. strength:                                                      0.000359
  Trans. dip. moment [a.u.]:           [  -0.002612,   -0.006040,    0.001805]
  <i|r^2|0> [a.u.]:                    [   0.005488,   -0.063283,   -0.001069]

  V1^2 = 0.9099, V2^2 = 0.0901

  Important amplitudes:
     core i     occ j      vir a      vir b          v   
    ------------------------------------------------------
     5 (A) A              26 (A) A                 0.6293
     5 (A) B              26 (A) B                -0.4987
    ------------------------------------------------------
  ----------------------------------------------------------------------------


  Excited state 12 (A)                                             [converged]
  ----------------------------------------------------------------------------
  Term symbol:  13 (-) A                                    R^2 =  3.10727e-14

  Total energy:                                           -424.3392448210 a.u.
  Excitation energy:                                             314.866937 eV

  Osc. strength:                                                      0.000382
  Trans. dip. moment [a.u.]:           [  -0.005836,    0.003078,    0.002456]
  <i|r^2|0> [a.u.]:                    [   0.012239,    0.032234,   -0.001750]

  V1^2 = 0.8967, V2^2 = 0.1033

  Important amplitudes:
     core i     occ j      vir a      vir b          v   
    ------------------------------------------------------
     5 (A) A              24 (A) A                 0.5442
     5 (A) A              28 (A) A                -0.4905
    ------------------------------------------------------
  ----------------------------------------------------------------------------


  Excited state 13 (A)                                             [converged]
  ----------------------------------------------------------------------------
  Term symbol:  14 (-) A                                    R^2 =  3.75033e-14

  Total energy:                                           -424.3378154453 a.u.
  Excitation energy:                                             314.905832 eV

  Osc. strength:                                                      0.001177
  Trans. dip. moment [a.u.]:           [  -0.004531,   -0.011153,    0.002763]
  <i|r^2|0> [a.u.]:                    [   0.007973,   -0.118504,   -0.003153]

  V1^2 = 0.8982, V2^2 = 0.1018

  Important amplitudes:
     core i     occ j      vir a      vir b          v   
    ------------------------------------------------------
     5 (A) B              24 (A) B                 0.4770
     5 (A) A              25 (A) A                -0.4614
    ------------------------------------------------------
  ----------------------------------------------------------------------------


  Excited state 14 (A)                                             [converged]
  ----------------------------------------------------------------------------
  Term symbol:  15 (-) A                                    R^2 =  4.58033e-14

  Total energy:                                           -424.3357815136 a.u.
  Excitation energy:                                             314.961179 eV

  Osc. strength:                                                      0.032124
  Trans. dip. moment [a.u.]:           [   0.026105,    0.057616,   -0.012730]
  <i|r^2|0> [a.u.]:                    [  -0.044227,    0.614987,    0.018023]

  V1^2 = 0.9080, V2^2 = 0.0920

  Important amplitudes:
     core i     occ j      vir a      vir b          v   
    ------------------------------------------------------
     5 (A) B              26 (A) B                -0.6413
     5 (A) A              26 (A) A                -0.4817
    ------------------------------------------------------
  ----------------------------------------------------------------------------


  Excited state 15 (A)                                             [converged]
  ----------------------------------------------------------------------------
  Term symbol:  16 (-) A                                    R^2 =  6.65747e-14

  Total energy:                                           -424.3238974141 a.u.
  Excitation energy:                                             315.284561 eV

  Osc. strength:                                                      0.030447
  Trans. dip. moment [a.u.]:           [  -0.052512,    0.027935,    0.020097]
  <i|r^2|0> [a.u.]:                    [   0.110457,    0.293021,   -0.014023]

  V1^2 = 0.9004, V2^2 = 0.0996

  Important amplitudes:
     core i     occ j      vir a      vir b          v   
    ------------------------------------------------------
     5 (A) B              28 (A) B                -0.5489
     5 (A) B              25 (A) B                 0.4890
    ------------------------------------------------------
  ----------------------------------------------------------------------------


  Excited state 16 (A)                                             [converged]
  ----------------------------------------------------------------------------
  Term symbol:  17 (-) A                                    R^2 =  1.70415e-13

  Total energy:                                           -424.3236824323 a.u.
  Excitation energy:                                             315.290411 eV

  Osc. strength:                                                      0.030114
  Trans. dip. moment [a.u.]:           [  -0.024276,   -0.004677,   -0.057335]
  <i|r^2|0> [a.u.]:                    [   0.054442,   -0.044861,    0.038436]

  V1^2 = 0.9010, V2^2 = 0.0990

  Important amplitudes:
     core i     occ j      vir a      vir b          v   
    ------------------------------------------------------
     5 (A) B              27 (A) B                -0.5041
     5 (A) A              27 (A) A                -0.4960
    ------------------------------------------------------
  ----------------------------------------------------------------------------


  Excited state 17 (A)                                             [converged]
  ----------------------------------------------------------------------------
  Term symbol:  18 (-) A                                    R^2 =  5.01112e-13

  Total energy:                                           -424.2992193519 a.u.
  Excitation energy:                                             315.956086 eV

  Osc. strength:                                                      0.007824
  Trans. dip. moment [a.u.]:           [  -0.007935,   -0.027133,    0.014546]
  <i|r^2|0> [a.u.]:                    [   0.039578,   -0.260171,    0.014160]

  V1^2 = 0.9169, V2^2 = 0.0831

  Important amplitudes:
     core i     occ j      vir a      vir b          v   
    ------------------------------------------------------
     5 (A) B              29 (A) B                 0.6010
     5 (A) A              29 (A) A                 0.5625
    ------------------------------------------------------
  ----------------------------------------------------------------------------


  Excited state 18 (A)                                         [not converged]
  ----------------------------------------------------------------------------
  Term symbol:  19 (-) A                                    R^2 =  2.65042e-05

  Total energy:                                           -423.6887724652 a.u.
  Excitation energy:                                             332.567190 eV


  V1^2 = 0.8719, V2^2 = 0.1281

  Important amplitudes:
     core i     occ j      vir a      vir b          v   
    ------------------------------------------------------
     5 (A) A              31 (A) A                 0.6527
     5 (A) B              31 (A) B                -0.6396
    ------------------------------------------------------
  ----------------------------------------------------------------------------


  Excited state 19 (A)                                         [not converged]
  ----------------------------------------------------------------------------
  Term symbol:  20 (-) A                                    R^2 =  1.38375e-03

  Total energy:                                           -423.6877364240 a.u.
  Excitation energy:                                             332.595382 eV


  V1^2 = 0.8716, V2^2 = 0.1284

  Important amplitudes:
     core i     occ j      vir a      vir b          v   
    ------------------------------------------------------
     5 (A) B              32 (A) B                -0.6474
     5 (A) A              32 (A) A                 0.5644
    ------------------------------------------------------
  ----------------------------------------------------------------------------


  Excited state 20 (A)                                         [not converged]
  ----------------------------------------------------------------------------
  Term symbol:  21 (-) A                                    R^2 =  1.16864e-04

  Total energy:                                           -423.6820502566 a.u.
  Excitation energy:                                             332.750111 eV


  V1^2 = 0.8706, V2^2 = 0.1294

  Important amplitudes:
     core i     occ j      vir a      vir b          v   
    ------------------------------------------------------
     5 (A) B              31 (A) B                 0.6536
     5 (A) A              31 (A) A                 0.6371
    ------------------------------------------------------
  ----------------------------------------------------------------------------


--------------------------------------------------------------------------------
  Time of ADC calculation:  CPU 1392.30 s  wall 1422.67 s
================================================================================
 
 --------------------------------------------------------------
 
                    Orbital Energies (a.u.)
 --------------------------------------------------------------
 
 Alpha MOs
 -- Occupied --
-26.743 -26.743 -26.742 -26.627 -11.946  -2.180  -2.068  -2.067
 -1.876  -1.324  -1.245  -1.245  -1.194  -1.073  -1.073  -1.047
 -1.043  -1.039  -1.018  -0.937  -0.934
 -- Virtual --
 -0.199   0.045   0.205   0.206   0.362   0.422   0.422   0.438
  0.944   1.012   1.013   1.014   1.091   1.107   1.186   1.229
  1.242   1.279   1.281   1.290   1.290   1.311   1.405   1.531
  1.649   1.651   1.745   1.749   1.786   1.789   1.810   1.817
  1.847   1.865   1.988   1.989   1.993   2.013   2.023   2.091
  2.159   2.477   2.681   2.683   3.022   3.023   3.235   3.236
  3.267   3.634   4.287   4.834   4.837   4.897
 
 Beta MOs
 -- Occupied --
-26.743 -26.743 -26.742 -26.578 -11.946  -2.180  -2.069  -2.067
 -1.682  -1.324  -1.245  -1.245  -1.194  -1.073  -1.073  -1.044
 -1.043  -1.018  -0.882  -0.881
 -- Virtual --
 -0.198  -0.124   0.045   0.206   0.209   0.366   0.422   0.424
  0.440   0.965   1.012   1.013   1.022   1.109   1.114   1.246
  1.257   1.276   1.283   1.288   1.291   1.311   1.382   1.405
  1.542   1.651   1.652   1.750   1.751   1.786   1.819   1.835
  1.850   1.935   1.938   1.988   1.989   2.015   2.026   2.033
  2.091   2.169   2.481   2.681   2.683   3.022   3.023   3.235
  3.236   3.269   3.671   4.288   4.834   4.837   4.898
 --------------------------------------------------------------
 
          Ground-State Mulliken Net Atomic Charges

     Atom                 Charge (a.u.)    Spin (a.u.)
  --------------------------------------------------------
      1 C                     1.194331      -0.005157
      2 F                    -0.076014      -0.000108
      3 F                    -0.075725      -0.000110
      4 F                     0.033763       1.005503
      5 F                    -0.076355      -0.000127
  --------------------------------------------------------
  Sum of atomic charges =     1.000000
  Sum of spin   charges =     1.000000

 -----------------------------------------------------------------
                    Cartesian Multipole Moments
 -----------------------------------------------------------------
    Charge (ESU x 10^10)
                 4.8032
    Dipole Moment (Debye)
         X      -2.8315      Y      12.7545      Z      -0.5876
       Tot      13.0783
    Quadrupole Moments (Debye-Ang)
        XX     -18.6392     XY      -7.1886     YY      14.6227
        XZ      -0.1383     YZ      -2.0816     ZZ     -20.7018
    Octopole Moments (Debye-Ang^2)
       XXX      41.5617    XXY     -44.4533    XYY      -4.6542
       YYY     -47.5659    XXZ       1.2773    XYZ       0.4055
       YYZ      -5.9968    XZZ      13.4619    YZZ     -48.2866
       ZZZ      -0.4902
    Hexadecapole Moments (Debye-Ang^3)
      XXXX    -132.1135   XXXY      86.2391   XXYY    -152.5538
      XYYY      35.0558   YYYY    -557.5183   XXXZ       2.4951
      XXYZ       6.8029   XYYZ       3.2281   YYYZ       0.7962
      XXZZ     -34.0700   XYZZ      26.7644   YYZZ    -150.3559
      XZZZ       6.4299   YZZZ      15.7642   ZZZZ     -78.9232
 -----------------------------------------------------------------
Archival summary:
1\1\tp-linux1\SP\HF\6-31G*\41(1+,2)\thomas\WedMar2213:27:062017WedMar2213:27:062017\0\\#,HF,6-31G*,\\1,2\C\F,1,1.20612\F,1,1.20626,2,118.746\F,1,1.20786,2,118.573,3,156.918,0\F,1,2.65124,2,95.5226,3,-99.1671,0\\HF=-435.17138\\@

 Total job time:  1439.30s(wall), 1404.45s(cpu) 
 Wed Mar 22 13:27:06 2017

        *************************************************************
        *                                                           *
        *  Thank you very much for using Q-Chem.  Have a nice day.  *
        *                                                           *
        *************************************************************


0 sent ACK to 0 
now end server 0 ... 
cleanup process ... done
