
Running Job 1 of 1 ddtraj1t27.inp
qchem ddtraj1t27.inp_19052.0 /scratch/qchem/qchem19052/ 1
/mnt/software/qchem/bin/mpi/mpirun_qchem -machinefile /mnt/software/qchem/bin/mpi/machines -np 1 /mnt/software/qchem/exe/qcprog.exe ddtraj1t27.inp_19052.0 /scratch/qchem/qchem19052/

Process 0 of 1 is on tp-linux1 - thread support 0
initial socket setup ...start
initial socket setup ...done 
now start server 0 ... 

cmd = ssh tp-linux1 /mnt/software/qchem/bin/get_hostid 283702167 > /scratch/qchem/qchem19052/lic.dat
                  Welcome to Q-Chem
     A Quantum Leap Into The Future Of Chemistry


 Q-Chem 4.3, Q-Chem, Inc., Pleasanton, CA (2015)

 Y. Shao,  Z. Gan,  E. Epifanovsky,  A. T. B. Gilbert,  M. Wormit,  
 J. Kussmann,  A. W. Lange,  A. Behn,  J. Deng,  X. Feng,  D. Ghosh,  
 M. Goldey,  P. R. Horn,  L. D. Jacobson,  I. Kaliman,  R. Z. Khaliullin,  
 T. Kus,  A. Landau,  J. Liu,  E. I. Proynov,  Y. M. Rhee,  R. M. Richard,  
 M. A. Rohrdanz,  R. P. Steele,  E. J. Sundstrom,  H. L. Woodcock III,  
 P. M. Zimmerman,  D. Zuev,  B. Albrecht,  E. Alguire,  B. Austin,  
 S. A. Baeppler,  G. J. O. Beran,  Y. A. Bernard,  E. Berquist,  
 K. Brandhorst,  K. B. Bravaya,  S. T. Brown,  D. Casanova,  C.-M. Chang,  
 Y. Chen,  S. H. Chien,  K. D. Closser,  D. L. Crittenden,  M. Diedenhofen,  
 R. A. DiStasio Jr.,  H. Do,  A. D. Dutoi,  R. G. Edgar,  P.-T. Fang,  
 S. Fatehi,  Q. Feng,  L. Fusti-Molnar,  A. Ghysels,  
 A. Golubeva-Zadorozhnaya,  J. Gomes,  A. Gunina,  M. W. D. Hanson-Heine,  
 P. H. P. Harbach,  A. W. Hauser,  E. G. Hohenstein,  Z. C. Holden,  K. Hui,  
 T.-C. Jagau,  H. Ji,  B. Kaduk,  K. Khistyaev,  Jaehoon Kim,  Jihan Kim,  
 R. A. King,  P. Klunzinger,  D. Kosenkov,  T. Kowalczyk,  C. M. Krauter,  
 K. U. Lao,  A. Laurent,  K. V. Lawler,  S. Lehtola,  S. V. Levchenko,  
 C. Y. Lin,  Y.-S. Lin,  F. Liu,  E. Livshits,  R. C. Lochan,  A. Luenser,  
 P. Manohar,  S. F. Manzer,  S.-P. Mao,  N. Mardirossian,  A. V. Marenich,  
 L. A. Martinez-Martinez,  S. A. Maurer,  N. J. Mayhall,  K. Nanda,  
 C. M. Oana,  R. Olivares-Amaya,  D. P. O'Neill,  J. A. Parkhill,  
 T. M. Perrine,  R. Peverati,  P. A. Pieniazek,  F. Plasser,  A. Prociuk,  
 D. R. Rehn,  E. Rosta,  N. J. Russ,  N. Sergueev,  S. M. Sharada,  
 S. Sharma,  D. W. Small,  A. Sodt,  T. Stauch,  T. Stein,  D. Stuck,  
 Y.-C. Su,  A. J. W. Thom,  T. Tsuchimochi,  L. Vogt,  O. Vydrov,  T. Wang,  
 M. A. Watson,  J. Wenzel,  A. White,  C. F. Williams,  V. Vanovschi,  
 S. Yeganeh,  S. R. Yost,  Z.-Q. You,  I. Y. Zhang,  X. Zhang,  Y. Zhao,  
 B. R. Brooks,  G. K. L. Chan,  D. M. Chipman,  C. J. Cramer,  
 W. A. Goddard III,  M. S. Gordon,  W. J. Hehre,  A. Klamt,  
 H. F. Schaefer III,  M. W. Schmidt,  C. D. Sherrill,  D. G. Truhlar,  
 A. Warshel,  X. Xu,  A. Aspuru-Guzik,  R. Baer,  A. T. Bell,  N. A. Besley,  
 J.-D. Chai,  A. Dreuw,  B. D. Dunietz,  T. R. Furlani,  S. R. Gwaltney,  
 C.-P. Hsu,  Y. Jung,  J. Kong,  D. S. Lambrecht,  W. Liang,  C. Ochsenfeld,  
 V. A. Rassolov,  L. V. Slipchenko,  J. E. Subotnik,  T. Van Voorhis,  
 J. M. Herbert,  A. I. Krylov,  P. M. W. Gill,  M. Head-Gordon

 Contributors to earlier versions of Q-Chem not listed above: 
 R. D. Adamson,  J. Baker,  E. F. C. Byrd,  A. K. Chakraborty,  C.-L. Cheng,  
 H. Dachsel,  R. J. Doerksen,  G. Hawkins,  A. Heyden,  S. Hirata,  
 G. Kedziora,  F. J. Keil,  C. Kelley,  P. P. Korambath,  W. Kurlancheek,  
 A. M. Lee,  M. S. Lee,  D. Liotard,  I. Lotan,  P. E. Maslen,  N. Nair,  
 D. Neuhauser,  R. Olson,  B. Peters,  J. Ritchie,  N. E. Schultz,  
 N. Shenvi,  A. C. Simmonett,  K. S. Thanthiriwatte,  Q. Wu,  W. Zhang

 Please cite Q-Chem as follows:
 Y. Shao et al., Mol. Phys. 113, 184-215 (2015)
 DOI: 10.1080/00268976.2014.952696

 Q-Chem 4.3.0 for Intel X86 Linux

 Parts of Q-Chem use Armadillo 5.200.1 (Boston Tea Smuggler).
 http://arma.sourceforge.net/

 Q-Chem begins on Wed Mar 22 11:06:55 2017  

Host: 
0

     Scratch files written to /scratch/qchem/qchem19052//
 Nov1815 1189b_ 19540  19532 5443   
 Parallel job on  1  processors
Processing $rem in /mnt/software/qchem/config/preferences.
 MEM_TOTAL  2000 

Checking the input file for inconsistencies... 	...done.

--------------------------------------------------------------
User input:
--------------------------------------------------------------
$comment
XAS calculation for valence excited states for CF4+ using cvs-adc(2) + 6-31G* basis set
job 1 - determination of HF orbitals
$end

$molecule
1 2
6  -0.489612  2.918722  -0.218839
9  0.59295  2.429571  -0.038098
9  -1.09525  3.348883  0.725688
9  -1.346098  0.591264  0.677672
9  -1.081423  2.669542  -1.227037
$end

$comment
cvs-adc(2) calculation
$end

$rem
mem_total 3000
mem_static 1500
sym_ignore true
method cvs-adc(2)
basis 6-31G*
ee_singlets 20
cc_rest_occ 5                  !only excitations from the lowest N orbitals
unrestricted  true
max_scf_cycles 200
SCF_ALGORITHM = DIIS_GDM
SCF_CONVERGENCE = 7
THRESH = 10
$end
--------------------------------------------------------------
 ----------------------------------------------------------------
             Standard Nuclear Orientation (Angstroms)
    I     Atom           X                Y                Z
 ----------------------------------------------------------------
    1      C      -0.4896120000     2.9187220000    -0.2188390000
    2      F       0.5929500000     2.4295710000    -0.0380980000
    3      F      -1.0952500000     3.3488830000     0.7256880000
    4      F      -1.3460980000     0.5912640000     0.6776720000
    5      F      -1.0814230000     2.6695420000    -1.2270370000
 ----------------------------------------------------------------
 Nuclear Repulsion Energy =   190.5998898997 hartrees
 There are       21 alpha and       20 beta electrons
 Requested basis set is 6-31G(d)
 There are 20 shells and 75 basis functions

 Total QAlloc Memory Limit   3000 MB
 Mega-Array Size      1467 MB
 MEM_STATIC part      1500 MB

                       Distance Matrix (Angstroms)
             C (  1)   F (  2)   F (  3)   F (  4)
   F (  2)  1.201614
   F (  3)  1.201652  2.068459
   F (  4)  2.637112  2.766154  2.769421
   F (  5)  1.195322  2.067532  2.067566  2.831468
 
 tim1(1): 
  4.000000000000004E-003
 tim1(2): 
  0.000000000000000E+000
 A cutoff of  1.0D-10 yielded    196 shell pairs
 There are      2950 function pairs
 
 -------------------------------------------------------
 OpenMP Integral Computing Module                       
 Release: version 1.0, May 2013, Q-Chem Inc. Pittsburgh 
 -------------------------------------------------------
 Integral Job Info:
 Integral job number is                      11
 Integral operator is                         1
 short-range coefficients                     0
 long-range coefficients              100000000
 Omega coefficients                           0
 if combine SR and LR in K                    0
 Integral screening is                        0
 Integral computing path is                   2
 max size of driver memory is            800000
 size of driver memory is                593474
 size of scratch memory is              2260544
 max col of scratch BK array               1296
 max len of scratch array in speh3          155
 max len of scratch index in speh4           18
 max int batch size is                      520
 min int batch size is                       52
 fixed nKL is                                52
 max L of basis functions is                  2
 order of int derivative is                   0
 number of shells is                         20
 number of basis is                          75
 number of cartesian basis is                75
 number of contracted shell pairs           196
 number of primitive shell pairs           1001
 maxK2 (contraction) of shell pair           36
 max number of K2 of shell pair               1
 max number of CS2 of shell pair             32
 max number of PS2 of shell pair            192
 mem total for path MDJ                   21832
 -------------------------------------------------------
 Smallest overlap matrix eigenvalue = 2.59E-03

 Scale SEOQF with 1.000000e+00/1.000000e-01/1.000000e+00

 Standard Electronic Orientation quadrupole field applied
 Nucleus-field energy     =     0.0000000102 hartrees
 Guess from superposition of atomic densities
 Warning:  Energy on first SCF cycle will be non-variational
 An unrestricted Hartree-Fock SCF calculation will be
 performed using Pulay DIIS + Geometric Direct Minimization
 SCF converges when RMS gradient is below 1.0E-07
 ---------------------------------------
  Cycle       Energy         DIIS Error
 ---------------------------------------
    1    -436.5821145460      9.66E-02
    2    -434.9902462107      1.76E-02
    3    -435.1413862701      7.82E-03 Done DIIS. Switching to GDM
    4    -435.1692013382      8.92E-03 Normal BFGS step
    5    -435.1701260674      7.87E-03 Normal BFGS step
    6    -435.1704244158      2.59E-03 Normal BFGS step
    7    -435.1704500618      2.52E-03 Normal BFGS step
    8    -435.1704631394      2.45E-03 Normal BFGS step
    9    -435.1704842412      2.30E-03 Normal BFGS step
   10    -435.1705258311      2.01E-03 Normal BFGS step
   11    -435.1705996593      1.90E-03 Normal BFGS step
   12    -435.1706881391      1.80E-03 Normal BFGS step
   13    -435.1707422214      8.97E-04 Normal BFGS step
   14    -435.1707549166      1.62E-04 Normal BFGS step
   15    -435.1707557681      9.11E-05 Normal BFGS step
   16    -435.1707558509      4.47E-05 Normal BFGS step
   17    -435.1707558647      1.87E-05 Normal BFGS step
   18    -435.1707558672      1.87E-05 Normal BFGS step
   19    -435.1707558688      1.87E-05 Normal BFGS step
   20    -435.1707558696      1.87E-05 Normal BFGS step
   21    -435.1707558715      1.87E-05 Normal BFGS step
   22    -435.1707558752      1.92E-05 Normal BFGS step
   23    -435.1707558853      3.46E-05 Normal BFGS step
   24    -435.1707559105      5.86E-05 Normal BFGS step
   25    -435.1707559772      9.67E-05 Normal BFGS step
   26    -435.1707561544      1.59E-04 Normal BFGS step
   27    -435.1707566082      2.63E-04 Normal BFGS step
   28    -435.1707570149      7.66E-04 Normal BFGS step
   29    -435.1707581857      3.97E-04 Normal BFGS step
   30    -435.1707611861      9.53E-04 Normal BFGS step
   31    -435.1707618944      2.09E-04 Normal BFGS step
   32    -435.1707628790      4.30E-04 Normal BFGS step
   33    -435.1707634182      1.15E-03 Normal BFGS step
   34    -435.1707646582      5.74E-04 Normal BFGS step
   35    -435.1707660583      3.20E-04 Normal BFGS step
   36    -435.1707671131      1.51E-03 Normal BFGS step
   37    -435.1707688329      2.68E-04 Normal BFGS step
   38    -435.1707701817      2.52E-04 Dog-leg BFGS step
   39    -435.1707126841      2.28E-02 Line search: overstep
   40    -435.1707708499      4.48E-04 Dog-leg BFGS step
   41    -435.1707715731      1.30E-03 Normal BFGS step
   42    -435.1707728110      3.67E-04 Normal BFGS step
   43    -435.1707737535      2.22E-04 Normal BFGS step
   44    -435.1707715054      7.21E-03 Line search: overstep
   45    -435.1707749864      4.58E-04 Dog-leg BFGS step
   46    -435.1707757491      1.21E-03 Normal BFGS step
   47    -435.1707772908      2.28E-04 Normal BFGS step
   48    -435.1707784289      2.35E-04 Normal BFGS step
   49    -435.1707755162      6.87E-03 Line search: overstep
   50    -435.1707790798      4.31E-04 Normal BFGS step
   51    -435.1707798056      9.58E-04 Normal BFGS step
   52    -435.1707808058      1.14E-04 Normal BFGS step
   53    -435.1707814071      1.19E-04 Normal BFGS step
   54    -435.1707781836      6.02E-03 Line search: overstep
   55    -435.1707816626      2.43E-04 Normal BFGS step
   56    -435.1707819303      6.65E-04 Normal BFGS step
   57    -435.1707823270      1.81E-04 Normal BFGS step
   58    -435.1707825776      8.87E-05 Normal BFGS step
   59    -435.1707828042      3.78E-04 Normal BFGS step
   60    -435.1707829446      4.48E-05 Normal BFGS step
   61    -435.1707830340      3.64E-05 Normal BFGS step
   62    -435.1707830893      2.00E-04 Normal BFGS step
   63    -435.1707831357      4.05E-05 Normal BFGS step
   64    -435.1707831531      4.23E-05 Normal BFGS step
   65    -435.1707831695      4.49E-05 Normal BFGS step
   66    -435.1707831760      4.42E-05 Normal BFGS step
   67    -435.1707831848      4.30E-05 Normal BFGS step
   68    -435.1707831961      4.01E-05 Normal BFGS step
   69    -435.1707832129      4.14E-05 Normal BFGS step
   70    -435.1707832319      5.01E-05 Normal BFGS step
   71    -435.1707832503      3.72E-05 Normal BFGS step
   72    -435.1707832638      6.63E-05 Normal BFGS step
   73    -435.1707832709      1.21E-05 Normal BFGS step
   74    -435.1707832751      9.79E-06 Normal BFGS step
   75    -435.1707832762      4.20E-06 Normal BFGS step
   76    -435.1707832765      1.70E-06 Normal BFGS step
   77    -435.1707832765      6.37E-07 Normal BFGS step
   78    -435.1707832765      2.26E-07 Normal BFGS step
   79    -435.1707832765      1.26E-07 Normal BFGS step
   GDM::WARNING energy changes are now smaller than effective accuracy.
   GDM::        calculation will continue, but THRESH should be increased
   GDM::        or SCF_CONVERGENCE decreased.
   GDM::        effective_thresh =   1.695906907961398E-009
   80    -435.1707832765      5.74E-08 Convergence criterion met
 ---------------------------------------
 <S^2> = 0.7530
 SCF time:  CPU 13.93 s  wall 57.54 s
 SCF   energy in the final basis set = -435.1707832765
 Total energy in the final basis set = -435.1707832765
================================================================================
|                                                                              |
|                                 A D C  M A N                                 |
|                                                                              |
 ------------------------------------------------------------------------------ 
|                                                                              |
| Components:                                                                  |
|                                                                              |
| - libvmm - 1.2-release                                                       |
|   Authors:                                                                   |
|   Evgeny Epifanovsky, Ilya Kaliman                                           |
|                                                                              |
| - libtensor - 2.4-trunk                                                      |
|   Authors:                                                                   |
|   Evgeny Epifanovsky, Michael Wormit, Dmitry Zuev, Sam Manzer                |
|                                                                              |
| - libwfa - 1.1-beta                                                          |
|   Authors:                                                                   |
|   Felix Plasser, Stefanie Baeppler, Benjamin Thomitzni, Michael Wormit       |
|                                                                              |
| - libadc - 1.0-beta                                                          |
|   Authors:                                                                   |
|   Michael Wormit, Philipp H. P. Harbach, Caroline Krauter, Dirk Rehn,        |
|   Matthias Schneider, Jan Wenzel                                             |
|                                                                              |
| - adcman - 2.4-beta                                                          |
|   Authors:                                                                   |
|   Michael Wormit, Philipp H. P. Harbach, Caroline Krauter, Dirk Rehn,        |
|   Jan Wenzel, Andreas Dreuw                                                  |
|                                                                              |
| Authors of earlier versions of ADCMAN:                                       |
| Andreas Dreuw, Jan Hendrik Starcke, Dirk Rehn, Michael Wormit                |
|                                                                              |
================================================================================

 
 Alpha MOs, Unrestricted
 -- Occupied --                  
-26.746 -26.743 -26.743 -26.614 -11.944  -2.187  -2.076  -2.071
  1 A     2 A     3 A     4 A     5 A     6 A     7 A     8 A                  
 -1.865  -1.326  -1.250  -1.250  -1.200  -1.076  -1.076  -1.048
  9 A    10 A    11 A    12 A    13 A    14 A    15 A    16 A                  
 -1.048  -1.029  -1.020  -0.926  -0.923
 17 A    18 A    19 A    20 A    21 A                                          
 -- Virtual --                   
 -0.196   0.054   0.211   0.214   0.360   0.426   0.432   0.451
 22 A    23 A    24 A    25 A    26 A    27 A    28 A    29 A                  
  0.955   1.010   1.011   1.014   1.082   1.103   1.186   1.220
 30 A    31 A    32 A    33 A    34 A    35 A    36 A    37 A                  
  1.276   1.285   1.287   1.306   1.310   1.314   1.380   1.501
 38 A    39 A    40 A    41 A    42 A    43 A    44 A    45 A                  
  1.649   1.650   1.748   1.751   1.785   1.806   1.824   1.846
 46 A    47 A    48 A    49 A    50 A    51 A    52 A    53 A                  
  1.857   1.874   1.955   1.985   1.994   1.995   2.035   2.097
 54 A    55 A    56 A    57 A    58 A    59 A    60 A    61 A                  
  2.333   2.540   2.701   2.707   3.038   3.045   3.254   3.257
 62 A    63 A    64 A    65 A    66 A    67 A    68 A    69 A                  
  3.304   3.664   4.309   4.849   4.872   5.443
 70 A    71 A    72 A    73 A    74 A    75 A                                  
 
 Beta MOs, Unrestricted
 -- Occupied --                  
-26.746 -26.743 -26.743 -26.566 -11.944  -2.187  -2.076  -2.071
  1 A     2 A     3 A     4 A     5 A     6 A     7 A     8 A                  
 -1.673  -1.326  -1.250  -1.250  -1.200  -1.076  -1.076  -1.048
  9 A    10 A    11 A    12 A    13 A    14 A    15 A    16 A                  
 -1.046  -1.020  -0.873  -0.871
 17 A    18 A    19 A    20 A                                                  
 -- Virtual --                   
 -0.196  -0.114   0.056   0.214   0.214   0.363   0.427   0.432
 21 A    22 A    23 A    24 A    25 A    26 A    27 A    28 A                  
  0.454   0.971   1.011   1.012   1.027   1.107   1.116   1.230
 29 A    30 A    31 A    32 A    33 A    34 A    35 A    36 A                  
  1.254   1.284   1.287   1.289   1.310   1.324   1.384   1.420
 37 A    38 A    39 A    40 A    41 A    42 A    43 A    44 A                  
  1.510   1.650   1.653   1.751   1.752   1.785   1.844   1.853
 45 A    46 A    47 A    48 A    49 A    50 A    51 A    52 A                  
  1.864   1.944   1.946   1.988   1.990   1.995   2.005   2.037
 53 A    54 A    55 A    56 A    57 A    58 A    59 A    60 A                  
  2.097   2.334   2.549   2.701   2.707   3.038   3.045   3.254
 61 A    62 A    63 A    64 A    65 A    66 A    67 A    68 A                  
  3.257   3.308   3.700   4.309   4.849   4.872   5.445
 69 A    70 A    71 A    72 A    73 A    74 A    75 A                          
 

--------------------------------------------------------------------------------
                                   HF Summary                                   
--------------------------------------------------------------------------------
  Energy:                                                 -435.1707832765 a.u.
  Dip. moment [a.u.]:                  [ -54.424053,  181.386579,    0.264551]
  Total dipole [Debye]:                                             481.344993
  <r^2> [a.u.]:                        [ 164.996875,  957.794319,   96.415520]
  Total <r^2> [a.u.]:                                              1219.206715
--------------------------------------------------------------------------------

--------------------------------------------------------------------------------
                                 MP(2) Summary                                  
--------------------------------------------------------------------------------
  Energy contribution:                                      -0.7371330422 a.u.
  Total energy:                                           -435.9079163187 a.u.
  Dip. moment [a.u.]:                  [ -54.392977,  181.468826,    0.234266]
  Total dipole [Debye]:                                             481.522442
  <r^2> [a.u.]:                        [ 164.735182,  958.789927,   96.224201]
  Total <r^2> [a.u.]:                                              1219.749310
--------------------------------------------------------------------------------
  Starting Davidson ... 
--------------------------------------------------------------------------------
   It NVec Conv  Avg. Norm  Max. Norm  Conv. states           Remark
--------------------------------------------------------------------------------
        20    0  2.102e-01  1.151e+00 10.9780 n n n n n n n n Guess.
    1   40    0  3.461e-02  4.602e-01 10.8178 n n n n n n n n 
    2   60    0  7.248e-03  7.248e-02 10.8164 n n n n n n n n 
    3   80    0  2.538e-03  2.948e-02 10.8163 n n n n n n n n 
    4  100    0  1.267e-03  1.616e-02 10.8163 n n n n n n n n 
    5   40    0  8.246e-04  1.040e-02 10.8163 n n n n n n n n Subspace collapsed.
    6   60    0  1.044e-03  1.710e-02 10.8163 n n n n n n n n 
    7   80    1  1.048e-03  1.867e-02 10.8163 y n n n n n n n 
    8  100    2  1.487e-03  2.781e-02 10.8163 y y n n n n n n 
    9   40    6  8.534e-04  1.624e-02 10.8163 y y n y n y y n Subspace collapsed.
   10   60    8  8.301e-04  1.601e-02 10.8163 y y n y y y y y 
   11   80    9  5.333e-04  9.920e-03 10.8163 y y y y y y y y 
   12  100   15  9.451e-04  1.795e-02 10.8163 y y y y y y y y 
   13   40   15  4.714e-04  8.781e-03 10.8163 y y y y y y y y Subspace collapsed.
   14   60   15  6.694e-04  1.278e-02 10.8163 y y y y y y y y 
   15   80   17  7.796e-04  1.506e-02 10.8163 y y y y y y y y 
   16   99   17  1.246e-03  2.420e-02 10.8163 y y y y y y y y 
   17  100   17  1.247e-03  2.418e-02 10.8163 y y y y y y y y 
   18   38   17  6.693e-04  1.286e-02 10.8163 y y y y y y y y Subspace collapsed.
   19   56   17  6.965e-04  1.352e-02 10.8163 y y y y y y y y 
   20   57   17  6.969e-04  1.353e-02 10.8163 y y y y y y y y 
   21   58   17  6.962e-04  1.351e-02 10.8163 y y y y y y y y 
   22   59   17  6.957e-04  1.350e-02 10.8163 y y y y y y y y 
   23   60   17  6.948e-04  1.349e-02 10.8163 y y y y y y y y 
   24   75   17  4.349e-04  8.178e-03 10.8163 y y y y y y y y 
   25   87   17  5.699e-04  1.071e-02 10.8163 y y y y y y y y 
   26   98   17  1.256e-03  2.398e-02 10.8163 y y y y y y y y 
   27  100   17  1.271e-03  2.429e-02 10.8163 y y y y y y y y 
   28   31   17  5.587e-04  1.053e-02 10.8163 y y y y y y y y Subspace collapsed.
   29   42   17  4.009e-04  7.422e-03 10.8163 y y y y y y y y 
   30   52   17  4.380e-04  8.467e-03 10.8163 y y y y y y y y 
   31   62   17  4.338e-04  8.340e-03 10.8163 y y y y y y y y 
   32   64   17  4.359e-04  8.385e-03 10.8163 y y y y y y y y 
   33   65   17  4.349e-04  8.368e-03 10.8163 y y y y y y y y 
   34   66   17  4.341e-04  8.350e-03 10.8163 y y y y y y y y 
   35   67   17  4.340e-04  8.348e-03 10.8163 y y y y y y y y 
   36   68   17  4.333e-04  8.336e-03 10.8163 y y y y y y y y 
   37   68   17  4.333e-04  8.336e-03 10.8163 y y y y y y y y 
   38   88   17  6.936e-04  1.344e-02 10.8163 y y y y y y y y 
   39   92   17  7.254e-04  1.377e-02 10.8163 y y y y y y y y 
   40   96   17  6.110e-04  1.120e-02 10.8163 y y y y y y y y 
   41  100   17  4.737e-04  8.522e-03 10.8163 y y y y y y y y 
   42   24   17  2.611e-04  4.660e-03 10.8163 y y y y y y y y Subspace collapsed.
   43   28   17  2.170e-04  3.771e-03 10.8163 y y y y y y y y 
   44   32   17  1.746e-04  3.017e-03 10.8163 y y y y y y y y 
   45   36   17  1.676e-04  2.827e-03 10.8163 y y y y y y y y 
   46   40   17  1.566e-04  2.715e-03 10.8163 y y y y y y y y 
   47   44   17  1.108e-04  1.931e-03 10.8163 y y y y y y y y 
   48   47   17  8.413e-05  1.428e-03 10.8163 y y y y y y y y 
   49   50   17  8.049e-05  1.329e-03 10.8163 y y y y y y y y 
   50   53   17  1.226e-04  1.916e-03 10.8163 y y y y y y y y 
   51   56   17  1.440e-04  2.064e-03 10.8163 y y y y y y y y 
   52   59   17  1.659e-04  2.510e-03 10.8163 y y y y y y y y 
   53   62   17  1.253e-04  1.842e-03 10.8163 y y y y y y y y 
   54   65   17  8.743e-05  1.255e-03 10.8163 y y y y y y y y 
   55   68   17  4.295e-05  6.241e-04 10.8163 y y y y y y y y 
   56   71   17  2.630e-05  4.164e-04 10.8163 y y y y y y y y 
   57   74   17  1.423e-05  2.192e-04 10.8163 y y y y y y y y 
   58   77   17  1.073e-05  1.762e-04 10.8163 y y y y y y y y 
   59   80   17  7.039e-06  1.252e-04 10.8163 y y y y y y y y 
--------------------------------------------------------------------------------
  Davidson Summary: 
 ------------------------------------------------------------
  State  0: excitation energy =  10.8163 a.u.   (converged)
  State  1: excitation energy =  10.8865 a.u.   (converged)
  State  2: excitation energy =  11.1723 a.u.   (converged)
  State  3: excitation energy =  11.1949 a.u.   (converged)
  State  4: excitation energy =  11.2285 a.u.   (converged)
  State  5: excitation energy =  11.2511 a.u.   (converged)
  State  6: excitation energy =  11.2578 a.u.   (converged)
  State  7: excitation energy =  11.3312 a.u.   (converged)
  State  8: excitation energy =  11.3376 a.u.   (converged)
  State  9: excitation energy =  11.5164 a.u.   (converged)
  State 10: excitation energy =  11.5676 a.u.   (converged)
  State 11: excitation energy =  11.5692 a.u.   (converged)
  State 12: excitation energy =  11.5700 a.u.   (converged)
  State 13: excitation energy =  11.5839 a.u.   (converged)
  State 14: excitation energy =  11.5853 a.u.   (converged)
  State 15: excitation energy =  11.5864 a.u.   (converged)
  State 16: excitation energy =  11.6258 a.u.   (converged)
  State 17: excitation energy =  12.2178 a.u.   (not converged)
  State 18: excitation energy =  12.2202 a.u.   (not converged)
  State 19: excitation energy =  12.2246 a.u.   (not converged)
 ------------------------------------------------------------


--------------------------------------------------------------------------------
                             Excited State Summary
--------------------------------------------------------------------------------

  Excited state  1 (A)                                             [converged]
  ----------------------------------------------------------------------------
  Term symbol:  2 (-) A                                     R^2 =  2.18961e-13

  Total energy:                                           -425.0916092001 a.u.
  Excitation energy:                                             294.326685 eV

  Osc. strength:                                                      0.000000
  Trans. dip. moment [a.u.]:           [   0.000011,    0.000030,   -0.000011]
  <i|r^2|0> [a.u.]:                    [  -0.000021,    0.000329,    0.000009]

  V1^2 = 0.9583, V2^2 = 0.0417

  Important amplitudes:
     core i     occ j      vir a      vir b          v   
    ------------------------------------------------------
     5 (A) B              21 (A) B                 0.6493
     5 (A) A              22 (A) A                -0.6490
    ------------------------------------------------------
  ----------------------------------------------------------------------------


  Excited state  2 (A)                                             [converged]
  ----------------------------------------------------------------------------
  Term symbol:  3 (-) A                                     R^2 =  1.28869e-13

  Total energy:                                           -425.0214435700 a.u.
  Excitation energy:                                             296.235989 eV

  Osc. strength:                                                      0.105269
  Trans. dip. moment [a.u.]:           [  -0.041527,   -0.106875,    0.036850]
  <i|r^2|0> [a.u.]:                    [   0.072568,   -1.185767,   -0.034624]

  V1^2 = 0.9536, V2^2 = 0.0464

  Important amplitudes:
     core i     occ j      vir a      vir b          v   
    ------------------------------------------------------
     5 (A) A              22 (A) A                -0.6618
     5 (A) B              21 (A) B                -0.6615
    ------------------------------------------------------
  ----------------------------------------------------------------------------


  Excited state  3 (A)                                             [converged]
  ----------------------------------------------------------------------------
  Term symbol:  4 (-) A                                     R^2 =  3.41250e-13

  Total energy:                                           -424.7356390206 a.u.
  Excitation energy:                                             304.013127 eV

  Osc. strength:                                                      0.000000
  Trans. dip. moment [a.u.]:           [  -0.000028,   -0.000081,    0.000036]
  <i|r^2|0> [a.u.]:                    [   0.000111,   -0.000767,    0.000028]

  V1^2 = 0.9303, V2^2 = 0.0697

  Important amplitudes:
     core i     occ j      vir a      vir b          v   
    ------------------------------------------------------
     5 (A) A              23 (A) A                 0.6111
     5 (A) B              23 (A) B                -0.6048
    ------------------------------------------------------
  ----------------------------------------------------------------------------


  Excited state  4 (A)                                             [converged]
  ----------------------------------------------------------------------------
  Term symbol:  5 (-) A                                     R^2 =  1.23912e-13

  Total energy:                                           -424.7129807293 a.u.
  Excitation energy:                                             304.629690 eV

  Osc. strength:                                                      0.000007
  Trans. dip. moment [a.u.]:           [  -0.000803,    0.000443,    0.000345]
  <i|r^2|0> [a.u.]:                    [   0.001513,    0.004924,   -0.000342]

  V1^2 = 0.8551, V2^2 = 0.1449

  Important amplitudes:
     core i     occ j      vir a      vir b          v   
    ------------------------------------------------------
     5 (A) B              22 (A) B                -0.9231
     5 (A) B   13 (A) A   22 (A) A   22 (A) B      0.0719
    ------------------------------------------------------
  ----------------------------------------------------------------------------


  Excited state  5 (A)                                             [converged]
  ----------------------------------------------------------------------------
  Term symbol:  6 (-) A                                     R^2 =  3.54749e-13

  Total energy:                                           -424.6794041389 a.u.
  Excitation energy:                                             305.543356 eV

  Osc. strength:                                                      0.009735
  Trans. dip. moment [a.u.]:           [   0.011254,    0.031606,   -0.013226]
  <i|r^2|0> [a.u.]:                    [  -0.035133,    0.323343,   -0.002996]

  V1^2 = 0.9202, V2^2 = 0.0798

  Important amplitudes:
     core i     occ j      vir a      vir b          v   
    ------------------------------------------------------
     5 (A) B              23 (A) B                -0.6456
     5 (A) A              23 (A) A                -0.6393
    ------------------------------------------------------
  ----------------------------------------------------------------------------


  Excited state  6 (A)                                             [converged]
  ----------------------------------------------------------------------------
  Term symbol:  7 (-) A                                     R^2 =  1.80242e-13

  Total energy:                                           -424.6568030775 a.u.
  Excitation energy:                                             306.158362 eV

  Osc. strength:                                                      0.000000
  Trans. dip. moment [a.u.]:           [   0.000077,   -0.000042,   -0.000033]
  <i|r^2|0> [a.u.]:                    [  -0.000147,   -0.000462,    0.000032]

  V1^2 = 0.9537, V2^2 = 0.0463

  Important amplitudes:
     core i     occ j      vir a      vir b          v   
    ------------------------------------------------------
     5 (A) A              27 (A) A                 0.5317
     5 (A) B              27 (A) B                -0.5273
    ------------------------------------------------------
  ----------------------------------------------------------------------------


  Excited state  7 (A)                                             [converged]
  ----------------------------------------------------------------------------
  Term symbol:  8 (-) A                                     R^2 =  2.85870e-13

  Total energy:                                           -424.6501553329 a.u.
  Excitation energy:                                             306.339256 eV

  Osc. strength:                                                      0.000000
  Trans. dip. moment [a.u.]:           [   0.000011,    0.000020,    0.000006]
  <i|r^2|0> [a.u.]:                    [  -0.000027,    0.000211,   -0.000011]

  V1^2 = 0.9536, V2^2 = 0.0464

  Important amplitudes:
     core i     occ j      vir a      vir b          v   
    ------------------------------------------------------
     5 (A) B              28 (A) B                 0.5313
     5 (A) A              28 (A) A                -0.5304
    ------------------------------------------------------
  ----------------------------------------------------------------------------


  Excited state  8 (A)                                             [converged]
  ----------------------------------------------------------------------------
  Term symbol:  9 (-) A                                     R^2 =  2.39594e-13

  Total energy:                                           -424.5767255408 a.u.
  Excitation energy:                                             308.337382 eV

  Osc. strength:                                                      0.117928
  Trans. dip. moment [a.u.]:           [   0.101892,   -0.055563,   -0.046281]
  <i|r^2|0> [a.u.]:                    [  -0.193545,   -0.613576,    0.043942]

  V1^2 = 0.9442, V2^2 = 0.0558

  Important amplitudes:
     core i     occ j      vir a      vir b          v   
    ------------------------------------------------------
     5 (A) B              24 (A) B                 0.4918
     5 (A) A              24 (A) A                 0.4906
    ------------------------------------------------------
  ----------------------------------------------------------------------------


  Excited state  9 (A)                                             [converged]
  ----------------------------------------------------------------------------
  Term symbol:  10 (-) A                                    R^2 =  1.99400e-13

  Total energy:                                           -424.5703384660 a.u.
  Excitation energy:                                             308.511183 eV

  Osc. strength:                                                      0.116962
  Trans. dip. moment [a.u.]:           [  -0.058014,   -0.015663,   -0.108920]
  <i|r^2|0> [a.u.]:                    [   0.110334,   -0.171588,    0.085907]

  V1^2 = 0.9438, V2^2 = 0.0562

  Important amplitudes:
     core i     occ j      vir a      vir b          v   
    ------------------------------------------------------
     5 (A) A              25 (A) A                -0.4891
     5 (A) B              25 (A) B                -0.4868
    ------------------------------------------------------
  ----------------------------------------------------------------------------


  Excited state 10 (A)                                             [converged]
  ----------------------------------------------------------------------------
  Term symbol:  11 (-) A                                    R^2 =  3.28573e-13

  Total energy:                                           -424.3915461814 a.u.
  Excitation energy:                                             313.376369 eV

  Osc. strength:                                                      0.000000
  Trans. dip. moment [a.u.]:           [  -0.000004,   -0.000015,    0.000005]
  <i|r^2|0> [a.u.]:                    [   0.000005,   -0.000163,   -0.000006]

  V1^2 = 0.9206, V2^2 = 0.0794

  Important amplitudes:
     core i     occ j      vir a      vir b          v   
    ------------------------------------------------------
     5 (A) B              26 (A) B                 0.5071
     5 (A) A              26 (A) A                -0.4966
    ------------------------------------------------------
  ----------------------------------------------------------------------------


  Excited state 11 (A)                                             [converged]
  ----------------------------------------------------------------------------
  Term symbol:  12 (-) A                                    R^2 =  1.57844e-13

  Total energy:                                           -424.3402919076 a.u.
  Excitation energy:                                             314.771069 eV

  Osc. strength:                                                      0.028519
  Trans. dip. moment [a.u.]:           [   0.022616,    0.054204,   -0.015768]
  <i|r^2|0> [a.u.]:                    [  -0.026022,    0.615630,    0.028924]

  V1^2 = 0.9171, V2^2 = 0.0829

  Important amplitudes:
     core i     occ j      vir a      vir b          v   
    ------------------------------------------------------
     5 (A) A              26 (A) A                -0.6452
     5 (A) B              26 (A) B                -0.6000
    ------------------------------------------------------
  ----------------------------------------------------------------------------


  Excited state 12 (A)                                             [converged]
  ----------------------------------------------------------------------------
  Term symbol:  13 (-) A                                    R^2 =  3.69930e-13

  Total energy:                                           -424.3386914097 a.u.
  Excitation energy:                                             314.814620 eV

  Osc. strength:                                                      0.000228
  Trans. dip. moment [a.u.]:           [  -0.004268,    0.002858,    0.001793]
  <i|r^2|0> [a.u.]:                    [   0.008222,    0.031671,   -0.001477]

  V1^2 = 0.8970, V2^2 = 0.1030

  Important amplitudes:
     core i     occ j      vir a      vir b          v   
    ------------------------------------------------------
     5 (A) A              24 (A) A                 0.5490
     5 (A) B              24 (A) B                -0.4664
    ------------------------------------------------------
  ----------------------------------------------------------------------------


  Excited state 13 (A)                                             [converged]
  ----------------------------------------------------------------------------
  Term symbol:  14 (-) A                                    R^2 =  2.17427e-13

  Total energy:                                           -424.3378967543 a.u.
  Excitation energy:                                             314.836244 eV

  Osc. strength:                                                      0.000090
  Trans. dip. moment [a.u.]:           [   0.001220,    0.003003,   -0.001089]
  <i|r^2|0> [a.u.]:                    [  -0.001168,    0.034338,    0.001985]

  V1^2 = 0.8976, V2^2 = 0.1024

  Important amplitudes:
     core i     occ j      vir a      vir b          v   
    ------------------------------------------------------
     5 (A) A              25 (A) A                 0.5077
     5 (A) B              25 (A) B                -0.5046
    ------------------------------------------------------
  ----------------------------------------------------------------------------


  Excited state 14 (A)                                             [converged]
  ----------------------------------------------------------------------------
  Term symbol:  15 (-) A                                    R^2 =  6.16717e-13

  Total energy:                                           -424.3239953051 a.u.
  Excitation energy:                                             315.214522 eV

  Osc. strength:                                                      0.029913
  Trans. dip. moment [a.u.]:           [   0.050801,   -0.027701,   -0.022919]
  <i|r^2|0> [a.u.]:                    [  -0.096027,   -0.305266,    0.020437]

  V1^2 = 0.9009, V2^2 = 0.0991

  Important amplitudes:
     core i     occ j      vir a      vir b          v   
    ------------------------------------------------------
     5 (A) B              27 (A) B                 0.5271
     5 (A) B              24 (A) B                -0.4914
    ------------------------------------------------------
  ----------------------------------------------------------------------------


  Excited state 15 (A)                                             [converged]
  ----------------------------------------------------------------------------
  Term symbol:  16 (-) A                                    R^2 =  4.61882e-13

  Total energy:                                           -424.3225678641 a.u.
  Excitation energy:                                             315.253364 eV

  Osc. strength:                                                      0.030983
  Trans. dip. moment [a.u.]:           [  -0.028797,   -0.006485,   -0.056036]
  <i|r^2|0> [a.u.]:                    [   0.056539,   -0.068685,    0.046731]

  V1^2 = 0.9015, V2^2 = 0.0985

  Important amplitudes:
     core i     occ j      vir a      vir b          v   
    ------------------------------------------------------
     5 (A) A              28 (A) A                -0.4828
     5 (A) B              28 (A) B                -0.4819
    ------------------------------------------------------
  ----------------------------------------------------------------------------


  Excited state 16 (A)                                             [converged]
  ----------------------------------------------------------------------------
  Term symbol:  17 (-) A                                    R^2 =  8.48128e-13

  Total energy:                                           -424.3215005827 a.u.
  Excitation energy:                                             315.282407 eV

  Osc. strength:                                                      0.000017
  Trans. dip. moment [a.u.]:           [   0.000463,   -0.000695,    0.001230]
  <i|r^2|0> [a.u.]:                    [  -0.003039,   -0.010023,   -0.003114]

  V1^2 = 0.9046, V2^2 = 0.0954

  Important amplitudes:
     core i     occ j      vir a      vir b          v   
    ------------------------------------------------------
     5 (A) A              29 (A) A                -0.5030
     5 (A) B              26 (A) B                 0.4165
    ------------------------------------------------------
  ----------------------------------------------------------------------------


  Excited state 17 (A)                                             [converged]
  ----------------------------------------------------------------------------
  Term symbol:  18 (-) A                                    R^2 =  5.76622e-13

  Total energy:                                           -424.2821227418 a.u.
  Excitation energy:                                             316.353932 eV

  Osc. strength:                                                      0.010931
  Trans. dip. moment [a.u.]:           [   0.011693,    0.033018,   -0.013546]
  <i|r^2|0> [a.u.]:                    [  -0.041627,    0.343162,   -0.008734]

  V1^2 = 0.9093, V2^2 = 0.0907

  Important amplitudes:
     core i     occ j      vir a      vir b          v   
    ------------------------------------------------------
     5 (A) B              29 (A) B                -0.6387
     5 (A) A              29 (A) A                -0.5726
    ------------------------------------------------------
  ----------------------------------------------------------------------------


  Excited state 18 (A)                                         [not converged]
  ----------------------------------------------------------------------------
  Term symbol:  19 (-) A                                    R^2 =  4.64564e-06

  Total energy:                                           -423.6901408687 a.u.
  Excitation energy:                                             332.462578 eV


  V1^2 = 0.8727, V2^2 = 0.1273

  Important amplitudes:
     core i     occ j      vir a      vir b          v   
    ------------------------------------------------------
     5 (A) A              31 (A) A                 0.6479
     5 (A) B              31 (A) B                -0.6403
    ------------------------------------------------------
  ----------------------------------------------------------------------------


  Excited state 19 (A)                                         [not converged]
  ----------------------------------------------------------------------------
  Term symbol:  20 (-) A                                    R^2 =  1.25176e-04

  Total energy:                                           -423.6877083289 a.u.
  Excitation energy:                                             332.528771 eV


  V1^2 = 0.8722, V2^2 = 0.1278

  Important amplitudes:
     core i     occ j      vir a      vir b          v   
    ------------------------------------------------------
     5 (A) A              32 (A) A                 0.6569
     5 (A) B              32 (A) B                -0.6453
    ------------------------------------------------------
  ----------------------------------------------------------------------------


  Excited state 20 (A)                                         [not converged]
  ----------------------------------------------------------------------------
  Term symbol:  21 (-) A                                    R^2 =  6.42620e-05

  Total energy:                                           -423.6833320656 a.u.
  Excitation energy:                                             332.647855 eV


  V1^2 = 0.8710, V2^2 = 0.1290

  Important amplitudes:
     core i     occ j      vir a      vir b          v   
    ------------------------------------------------------
     5 (A) B              31 (A) B                -0.6160
     5 (A) A              31 (A) A                -0.6100
    ------------------------------------------------------
  ----------------------------------------------------------------------------


--------------------------------------------------------------------------------
  Time of ADC calculation:  CPU 1289.88 s  wall 1328.42 s
================================================================================
 
 --------------------------------------------------------------
 
                    Orbital Energies (a.u.)
 --------------------------------------------------------------
 
 Alpha MOs
 -- Occupied --
-26.746 -26.743 -26.743 -26.614 -11.944  -2.187  -2.076  -2.071
 -1.865  -1.326  -1.250  -1.250  -1.200  -1.076  -1.076  -1.048
 -1.048  -1.029  -1.020  -0.926  -0.923
 -- Virtual --
 -0.196   0.054   0.211   0.214   0.360   0.426   0.432   0.451
  0.955   1.010   1.011   1.014   1.082   1.103   1.186   1.220
  1.276   1.285   1.287   1.306   1.310   1.314   1.380   1.501
  1.649   1.650   1.748   1.751   1.785   1.806   1.824   1.846
  1.857   1.874   1.955   1.985   1.994   1.995   2.035   2.097
  2.333   2.540   2.701   2.707   3.038   3.045   3.254   3.257
  3.304   3.664   4.309   4.849   4.872   5.443
 
 Beta MOs
 -- Occupied --
-26.746 -26.743 -26.743 -26.566 -11.944  -2.187  -2.076  -2.071
 -1.673  -1.326  -1.250  -1.250  -1.200  -1.076  -1.076  -1.048
 -1.046  -1.020  -0.873  -0.871
 -- Virtual --
 -0.196  -0.114   0.056   0.214   0.214   0.363   0.427   0.432
  0.454   0.971   1.011   1.012   1.027   1.107   1.116   1.230
  1.254   1.284   1.287   1.289   1.310   1.324   1.384   1.420
  1.510   1.650   1.653   1.751   1.752   1.785   1.844   1.853
  1.864   1.944   1.946   1.988   1.990   1.995   2.005   2.037
  2.097   2.334   2.549   2.701   2.707   3.038   3.045   3.254
  3.257   3.308   3.700   4.309   4.849   4.872   5.445
 --------------------------------------------------------------
 
          Ground-State Mulliken Net Atomic Charges

     Atom                 Charge (a.u.)    Spin (a.u.)
  --------------------------------------------------------
      1 C                     1.198682      -0.005207
      2 F                    -0.078088       0.000315
      3 F                    -0.078037       0.000306
      4 F                     0.025094       1.004462
      5 F                    -0.067652       0.000123
  --------------------------------------------------------
  Sum of atomic charges =     1.000000
  Sum of spin   charges =     1.000000

 -----------------------------------------------------------------
                    Cartesian Multipole Moments
 -----------------------------------------------------------------
    Charge (ESU x 10^10)
                 4.8032
    Dipole Moment (Debye)
         X      -2.4309      Y      13.8334      Z      -1.0039
       Tot      14.0812
    Quadrupole Moments (Debye-Ang)
        XX     -19.0781     XY      -6.7417     YY      20.4080
        XZ       0.0703     YZ      -3.3191     ZZ     -20.5354
    Octopole Moments (Debye-Ang^2)
       XXX      41.4976    XXY     -45.3911    XYY      -4.4978
       YYY     -23.3647    XXZ       1.1507    XYZ       0.6817
       YYZ     -10.3754    XZZ      13.3016    YZZ     -48.0441
       ZZZ      -0.1505
    Hexadecapole Moments (Debye-Ang^3)
      XXXX    -129.4686   XXXY      88.7367   XXYY    -151.7024
      XYYY      36.7686   YYYY    -448.4388   XXXZ       1.6595
      XXYZ       5.9177   XYYZ       3.6890   YYYZ     -18.9978
      XXZZ     -32.7431   XYZZ      27.6532   YYZZ    -146.7338
      XZZZ       4.7468   YZZZ      13.3518   ZZZZ     -75.7306
 -----------------------------------------------------------------
Archival summary:
1\1\tp-linux1\SP\HF\6-31G*\41(1+,2)\thomas\WedMar2211:30:042017WedMar2211:30:042017\0\\#,HF,6-31G*,\\1,2\C\F,1,1.19532\F,1,1.20161,2,119.213\F,1,1.20165,2,119.213,3,160.879,0\F,1,2.63711,2,86.6723,3,80.3448,0\\HF=-435.170783\\@

 Total job time:  1388.68s(wall), 1305.77s(cpu) 
 Wed Mar 22 11:30:04 2017

        *************************************************************
        *                                                           *
        *  Thank you very much for using Q-Chem.  Have a nice day.  *
        *                                                           *
        *************************************************************


0 sent ACK to 0 
now end server 0 ... 
cleanup process ... done
