
Running Job 1 of 1 ddtraj1t18.inp
qchem ddtraj1t18.inp_14621.0 /scratch/qchem/qchem14621/ 1
/mnt/software/qchem/bin/mpi/mpirun_qchem -machinefile /mnt/software/qchem/bin/mpi/machines -np 1 /mnt/software/qchem/exe/qcprog.exe ddtraj1t18.inp_14621.0 /scratch/qchem/qchem14621/

Process 0 of 1 is on tp-linux1 - thread support 0
initial socket setup ...start
initial socket setup ...done 
now start server 0 ... 

cmd = ssh tp-linux1 /mnt/software/qchem/bin/get_hostid 349566512 > /scratch/qchem/qchem14621/lic.dat
                  Welcome to Q-Chem
     A Quantum Leap Into The Future Of Chemistry


 Q-Chem 4.3, Q-Chem, Inc., Pleasanton, CA (2015)

 Y. Shao,  Z. Gan,  E. Epifanovsky,  A. T. B. Gilbert,  M. Wormit,  
 J. Kussmann,  A. W. Lange,  A. Behn,  J. Deng,  X. Feng,  D. Ghosh,  
 M. Goldey,  P. R. Horn,  L. D. Jacobson,  I. Kaliman,  R. Z. Khaliullin,  
 T. Kus,  A. Landau,  J. Liu,  E. I. Proynov,  Y. M. Rhee,  R. M. Richard,  
 M. A. Rohrdanz,  R. P. Steele,  E. J. Sundstrom,  H. L. Woodcock III,  
 P. M. Zimmerman,  D. Zuev,  B. Albrecht,  E. Alguire,  B. Austin,  
 S. A. Baeppler,  G. J. O. Beran,  Y. A. Bernard,  E. Berquist,  
 K. Brandhorst,  K. B. Bravaya,  S. T. Brown,  D. Casanova,  C.-M. Chang,  
 Y. Chen,  S. H. Chien,  K. D. Closser,  D. L. Crittenden,  M. Diedenhofen,  
 R. A. DiStasio Jr.,  H. Do,  A. D. Dutoi,  R. G. Edgar,  P.-T. Fang,  
 S. Fatehi,  Q. Feng,  L. Fusti-Molnar,  A. Ghysels,  
 A. Golubeva-Zadorozhnaya,  J. Gomes,  A. Gunina,  M. W. D. Hanson-Heine,  
 P. H. P. Harbach,  A. W. Hauser,  E. G. Hohenstein,  Z. C. Holden,  K. Hui,  
 T.-C. Jagau,  H. Ji,  B. Kaduk,  K. Khistyaev,  Jaehoon Kim,  Jihan Kim,  
 R. A. King,  P. Klunzinger,  D. Kosenkov,  T. Kowalczyk,  C. M. Krauter,  
 K. U. Lao,  A. Laurent,  K. V. Lawler,  S. Lehtola,  S. V. Levchenko,  
 C. Y. Lin,  Y.-S. Lin,  F. Liu,  E. Livshits,  R. C. Lochan,  A. Luenser,  
 P. Manohar,  S. F. Manzer,  S.-P. Mao,  N. Mardirossian,  A. V. Marenich,  
 L. A. Martinez-Martinez,  S. A. Maurer,  N. J. Mayhall,  K. Nanda,  
 C. M. Oana,  R. Olivares-Amaya,  D. P. O'Neill,  J. A. Parkhill,  
 T. M. Perrine,  R. Peverati,  P. A. Pieniazek,  F. Plasser,  A. Prociuk,  
 D. R. Rehn,  E. Rosta,  N. J. Russ,  N. Sergueev,  S. M. Sharada,  
 S. Sharma,  D. W. Small,  A. Sodt,  T. Stauch,  T. Stein,  D. Stuck,  
 Y.-C. Su,  A. J. W. Thom,  T. Tsuchimochi,  L. Vogt,  O. Vydrov,  T. Wang,  
 M. A. Watson,  J. Wenzel,  A. White,  C. F. Williams,  V. Vanovschi,  
 S. Yeganeh,  S. R. Yost,  Z.-Q. You,  I. Y. Zhang,  X. Zhang,  Y. Zhao,  
 B. R. Brooks,  G. K. L. Chan,  D. M. Chipman,  C. J. Cramer,  
 W. A. Goddard III,  M. S. Gordon,  W. J. Hehre,  A. Klamt,  
 H. F. Schaefer III,  M. W. Schmidt,  C. D. Sherrill,  D. G. Truhlar,  
 A. Warshel,  X. Xu,  A. Aspuru-Guzik,  R. Baer,  A. T. Bell,  N. A. Besley,  
 J.-D. Chai,  A. Dreuw,  B. D. Dunietz,  T. R. Furlani,  S. R. Gwaltney,  
 C.-P. Hsu,  Y. Jung,  J. Kong,  D. S. Lambrecht,  W. Liang,  C. Ochsenfeld,  
 V. A. Rassolov,  L. V. Slipchenko,  J. E. Subotnik,  T. Van Voorhis,  
 J. M. Herbert,  A. I. Krylov,  P. M. W. Gill,  M. Head-Gordon

 Contributors to earlier versions of Q-Chem not listed above: 
 R. D. Adamson,  J. Baker,  E. F. C. Byrd,  A. K. Chakraborty,  C.-L. Cheng,  
 H. Dachsel,  R. J. Doerksen,  G. Hawkins,  A. Heyden,  S. Hirata,  
 G. Kedziora,  F. J. Keil,  C. Kelley,  P. P. Korambath,  W. Kurlancheek,  
 A. M. Lee,  M. S. Lee,  D. Liotard,  I. Lotan,  P. E. Maslen,  N. Nair,  
 D. Neuhauser,  R. Olson,  B. Peters,  J. Ritchie,  N. E. Schultz,  
 N. Shenvi,  A. C. Simmonett,  K. S. Thanthiriwatte,  Q. Wu,  W. Zhang

 Please cite Q-Chem as follows:
 Y. Shao et al., Mol. Phys. 113, 184-215 (2015)
 DOI: 10.1080/00268976.2014.952696

 Q-Chem 4.3.0 for Intel X86 Linux

 Parts of Q-Chem use Armadillo 5.200.1 (Boston Tea Smuggler).
 http://arma.sourceforge.net/

 Q-Chem begins on Wed Mar 22 18:02:10 2017  

Host: 
0

     Scratch files written to /scratch/qchem/qchem14621//
 Nov1815 1189b_ 19540  19532 5443   
 Parallel job on  1  processors
Processing $rem in /mnt/software/qchem/config/preferences.
 MEM_TOTAL  2000 

Checking the input file for inconsistencies... 	...done.

--------------------------------------------------------------
User input:
--------------------------------------------------------------
$comment
XAS calculation for valence excited states for CF4+ using cvs-adc(2) + 6-31G* basis set
job 1 - determination of HF orbitals
$end

$molecule
1 2
6  -0.462792  2.975586  -0.228859
9  0.580424  2.321862  0.004192
9  -1.143639  3.259988  0.784431
9  -1.247183  0.868631  0.564725
9  -1.136364  2.552862  -1.208794
$end

$comment
cvs-adc(2) calculation
$end

$rem
mem_total 3000
mem_static 1500
sym_ignore true
method cvs-adc(2)
basis 6-31G*
ee_singlets 20
cc_rest_occ 5                  !only excitations from the lowest N orbitals
unrestricted  true
max_scf_cycles 200
SCF_ALGORITHM = DIIS_GDM
SCF_CONVERGENCE = 7
THRESH = 10
$end
--------------------------------------------------------------
 ----------------------------------------------------------------
             Standard Nuclear Orientation (Angstroms)
    I     Atom           X                Y                Z
 ----------------------------------------------------------------
    1      C      -0.4627920000     2.9755860000    -0.2288590000
    2      F       0.5804240000     2.3218620000     0.0041920000
    3      F      -1.1436390000     3.2599880000     0.7844310000
    4      F      -1.2471830000     0.8686310000     0.5647250000
    5      F      -1.1363640000     2.5528620000    -1.2087940000
 ----------------------------------------------------------------
 Nuclear Repulsion Energy =   194.2507905157 hartrees
 There are       21 alpha and       20 beta electrons
 Requested basis set is 6-31G(d)
 There are 20 shells and 75 basis functions

 Total QAlloc Memory Limit   3000 MB
 Mega-Array Size      1467 MB
 MEM_STATIC part      1500 MB

                       Distance Matrix (Angstroms)
             C (  1)   F (  2)   F (  3)   F (  4)
   F (  2)  1.252983
   F (  3)  1.253473  2.112166
   F (  4)  2.384178  2.401297  2.403660
   F (  5)  1.262009  2.114724  2.114953  2.448323
 
 tim1(1): 
  0.000000000000000E+000
 tim1(2): 
  0.000000000000000E+000
 A cutoff of  1.0D-10 yielded    201 shell pairs
 There are      2970 function pairs
 
 -------------------------------------------------------
 OpenMP Integral Computing Module                       
 Release: version 1.0, May 2013, Q-Chem Inc. Pittsburgh 
 -------------------------------------------------------
 Integral Job Info:
 Integral job number is                      11
 Integral operator is                         1
 short-range coefficients                     0
 long-range coefficients              100000000
 Omega coefficients                           0
 if combine SR and LR in K                    0
 Integral screening is                        0
 Integral computing path is                   2
 max size of driver memory is            800000
 size of driver memory is                593474
 size of scratch memory is              2260544
 max col of scratch BK array               1296
 max len of scratch array in speh3          155
 max len of scratch index in speh4           18
 max int batch size is                      520
 min int batch size is                       52
 fixed nKL is                                52
 max L of basis functions is                  2
 order of int derivative is                   0
 number of shells is                         20
 number of basis is                          75
 number of cartesian basis is                75
 number of contracted shell pairs           201
 number of primitive shell pairs           1011
 maxK2 (contraction) of shell pair           36
 max number of K2 of shell pair               1
 max number of CS2 of shell pair             32
 max number of PS2 of shell pair            192
 mem total for path MDJ                   21832
 -------------------------------------------------------
 Smallest overlap matrix eigenvalue = 1.47E-03

 Scale SEOQF with 1.000000e+00/1.000000e-01/1.000000e+00

 Standard Electronic Orientation quadrupole field applied
 Nucleus-field energy     =     0.0000000102 hartrees
 Guess from superposition of atomic densities
 Warning:  Energy on first SCF cycle will be non-variational
 An unrestricted Hartree-Fock SCF calculation will be
 performed using Pulay DIIS + Geometric Direct Minimization
 SCF converges when RMS gradient is below 1.0E-07
 ---------------------------------------
  Cycle       Energy         DIIS Error
 ---------------------------------------
    1    -436.1452607613      8.49E-02
    2    -434.8796395648      1.85E-02
    3    -435.0780331908      9.28E-03 Done DIIS. Switching to GDM
    4    -435.1197874190      2.25E-02 Normal BFGS step
    5    -435.1216903817      1.23E-02 Normal BFGS step
    6    -435.1223121287      2.56E-03 Normal BFGS step
    7    -435.1223506440      2.52E-03 Normal BFGS step
    8    -435.1223658417      2.48E-03 Normal BFGS step
    9    -435.1223842097      2.39E-03 Normal BFGS step
   10    -435.1224164990      2.20E-03 Normal BFGS step
   11    -435.1224764097      2.27E-03 Normal BFGS step
   12    -435.1225632433      2.74E-03 Normal BFGS step
   13    -435.1226469367      2.39E-03 Normal BFGS step
   14    -435.1226958137      1.34E-03 Normal BFGS step
   15    -435.1227128409      7.00E-04 Normal BFGS step
   16    -435.1227179567      3.37E-04 Normal BFGS step
   17    -435.1227194696      1.22E-04 Normal BFGS step
   18    -435.1227197051      8.19E-05 Normal BFGS step
   19    -435.1227197541      6.96E-05 Normal BFGS step
   20    -435.1227197683      6.97E-05 Normal BFGS step
   21    -435.1227197829      6.99E-05 Normal BFGS step
   22    -435.1227198027      6.99E-05 Normal BFGS step
   23    -435.1227198504      7.00E-05 Normal BFGS step
   24    -435.1227199544      8.45E-05 Normal BFGS step
   25    -435.1227202100      1.40E-04 Normal BFGS step
   26    -435.1227208326      2.22E-04 Normal BFGS step
   27    -435.1227223468      3.45E-04 Normal BFGS step
   28    -435.1227250456      8.12E-04 Normal BFGS step
   29    -435.1227291289      1.09E-03 Normal BFGS step
   30    -435.1227360643      3.40E-03 Normal BFGS step
   31    -435.1227443186      1.07E-03 Normal BFGS step
   32    -435.1227537301      3.78E-04 Normal BFGS step
   33    -435.1227575492      2.14E-03 Normal BFGS step
   34    -435.1227623135      1.21E-03 Normal BFGS step
   35    -435.1227707761      5.21E-04 Normal BFGS step
   36    -435.1227760573      2.37E-03 Normal BFGS step
   37    -435.1227825049      3.75E-04 Normal BFGS step
   38    -435.1227882047      3.40E-04 Dog-leg BFGS step
   39    -435.1227471519      1.56E-02 Line search: overstep
   40    -435.1227924022      5.03E-04 Dog-leg BFGS step
   41    -435.1227989990      8.35E-04 Normal BFGS step
   42    -435.1228047802      5.01E-04 Normal BFGS step
   43    -435.1228073537      2.90E-04 Normal BFGS step
   44    -435.1228078113      1.25E-03 Normal BFGS step
   45    -435.1228118841      6.01E-04 Normal BFGS step
   46    -435.1228134654      3.09E-04 Normal BFGS step
   47    -435.1228142428      3.40E-04 Normal BFGS step
   48    -435.1228147285      2.25E-04 Normal BFGS step
   49    -435.1228150085      1.86E-04 Normal BFGS step
   50    -435.1228151587      8.27E-05 Normal BFGS step
   51    -435.1228152749      8.61E-05 Normal BFGS step
   52    -435.1228153363      7.37E-05 Normal BFGS step
   53    -435.1228153565      6.99E-05 Normal BFGS step
   54    -435.1228153790      6.52E-05 Normal BFGS step
   55    -435.1228154163      5.62E-05 Normal BFGS step
   56    -435.1228154710      7.95E-05 Normal BFGS step
   57    -435.1228155420      5.17E-05 Normal BFGS step
   58    -435.1228156110      5.03E-05 Normal BFGS step
   59    -435.1228156382      1.84E-05 Normal BFGS step
   60    -435.1228156427      9.51E-06 Normal BFGS step
   61    -435.1228156435      5.67E-06 Normal BFGS step
   62    -435.1228156437      2.88E-06 Normal BFGS step
   63    -435.1228156438      1.27E-06 Normal BFGS step
   64    -435.1228156438      3.62E-07 Normal BFGS step
   65    -435.1228156438      1.26E-07 Normal BFGS step
   GDM::WARNING energy changes are now smaller than effective accuracy.
   GDM::        calculation will continue, but THRESH should be increased
   GDM::        or SCF_CONVERGENCE decreased.
   GDM::        effective_thresh =   1.227289561644973E-009
   66    -435.1228156438      6.64E-08 Convergence criterion met
 ---------------------------------------
 <S^2> = 0.7529
 SCF time:  CPU 10.05 s  wall 44.70 s
 SCF   energy in the final basis set = -435.1228156438
 Total energy in the final basis set = -435.1228156438
================================================================================
|                                                                              |
|                                 A D C  M A N                                 |
|                                                                              |
 ------------------------------------------------------------------------------ 
|                                                                              |
| Components:                                                                  |
|                                                                              |
| - libvmm - 1.2-release                                                       |
|   Authors:                                                                   |
|   Evgeny Epifanovsky, Ilya Kaliman                                           |
|                                                                              |
| - libtensor - 2.4-trunk                                                      |
|   Authors:                                                                   |
|   Evgeny Epifanovsky, Michael Wormit, Dmitry Zuev, Sam Manzer                |
|                                                                              |
| - libwfa - 1.1-beta                                                          |
|   Authors:                                                                   |
|   Felix Plasser, Stefanie Baeppler, Benjamin Thomitzni, Michael Wormit       |
|                                                                              |
| - libadc - 1.0-beta                                                          |
|   Authors:                                                                   |
|   Michael Wormit, Philipp H. P. Harbach, Caroline Krauter, Dirk Rehn,        |
|   Matthias Schneider, Jan Wenzel                                             |
|                                                                              |
| - adcman - 2.4-beta                                                          |
|   Authors:                                                                   |
|   Michael Wormit, Philipp H. P. Harbach, Caroline Krauter, Dirk Rehn,        |
|   Jan Wenzel, Andreas Dreuw                                                  |
|                                                                              |
| Authors of earlier versions of ADCMAN:                                       |
| Andreas Dreuw, Jan Hendrik Starcke, Dirk Rehn, Michael Wormit                |
|                                                                              |
================================================================================

 
 Alpha MOs, Unrestricted
 -- Occupied --                  
-26.739 -26.739 -26.735 -26.623 -11.964  -2.143  -2.037  -2.031
  1 A     2 A     3 A     4 A     5 A     6 A     7 A     8 A                  
 -1.879  -1.316  -1.216  -1.215  -1.168  -1.065  -1.057  -1.046
  9 A    10 A    11 A    12 A    13 A    14 A    15 A    16 A                  
 -1.027  -1.019  -1.010  -0.935  -0.932
 17 A    18 A    19 A    20 A    21 A                                          
 -- Virtual --                   
 -0.297   0.130   0.134   0.134   0.350   0.382   0.386   0.475
 22 A    23 A    24 A    25 A    26 A    27 A    28 A    29 A                  
  0.942   0.980   1.003   1.019   1.022   1.036   1.175   1.205
 30 A    31 A    32 A    33 A    34 A    35 A    36 A    37 A                  
  1.226   1.297   1.298   1.315   1.373   1.390   1.414   1.612
 38 A    39 A    40 A    41 A    42 A    43 A    44 A    45 A                  
  1.634   1.639   1.731   1.740   1.783   1.801   1.803   1.836
 46 A    47 A    48 A    49 A    50 A    51 A    52 A    53 A                  
  1.856   1.868   1.927   1.939   1.964   2.018   2.023   2.068
 54 A    55 A    56 A    57 A    58 A    59 A    60 A    61 A                  
  2.463   2.509   2.519   2.697   2.844   2.848   3.120   3.123
 62 A    63 A    64 A    65 A    66 A    67 A    68 A    69 A                  
  3.288   3.731   4.266   4.468   4.488   6.762
 70 A    71 A    72 A    73 A    74 A    75 A                                  
 
 Beta MOs, Unrestricted
 -- Occupied --                  
-26.739 -26.739 -26.735 -26.574 -11.964  -2.143  -2.037  -2.031
  1 A     2 A     3 A     4 A     5 A     6 A     7 A     8 A                  
 -1.687  -1.316  -1.216  -1.215  -1.166  -1.058  -1.057  -1.029
  9 A    10 A    11 A    12 A    13 A    14 A    15 A    16 A                  
 -1.027  -1.010  -0.883  -0.881
 17 A    18 A    19 A    20 A                                                  
 -- Virtual --                   
 -0.297  -0.126   0.130   0.135   0.136   0.350   0.382   0.388
 21 A    22 A    23 A    24 A    25 A    26 A    27 A    28 A                  
  0.482   0.956   1.007   1.012   1.024   1.041   1.052   1.213
 29 A    30 A    31 A    32 A    33 A    34 A    35 A    36 A                  
  1.233   1.240   1.299   1.299   1.315   1.401   1.415   1.470
 37 A    38 A    39 A    40 A    41 A    42 A    43 A    44 A                  
  1.628   1.641   1.645   1.741   1.742   1.783   1.814   1.815
 45 A    46 A    47 A    48 A    49 A    50 A    51 A    52 A                  
  1.853   1.930   1.937   1.949   1.958   1.979   2.028   2.052
 53 A    54 A    55 A    56 A    57 A    58 A    59 A    60 A                  
  2.068   2.465   2.510   2.520   2.703   2.844   2.849   3.120
 61 A    62 A    63 A    64 A    65 A    66 A    67 A    68 A                  
  3.123   3.291   3.767   4.266   4.468   4.489   6.764
 69 A    70 A    71 A    72 A    73 A    74 A    75 A                          
 

--------------------------------------------------------------------------------
                                   HF Summary                                   
--------------------------------------------------------------------------------
  Energy:                                                 -435.1228156438 a.u.
  Dip. moment [a.u.]:                  [ -54.501571,  181.228778,    0.285403]
  Total dipole [Debye]:                                             481.017619
  <r^2> [a.u.]:                        [ 163.476931,  921.154506,   93.573217]
  Total <r^2> [a.u.]:                                              1178.204654
--------------------------------------------------------------------------------

--------------------------------------------------------------------------------
                                 MP(2) Summary                                  
--------------------------------------------------------------------------------
  Energy contribution:                                      -0.7560589969 a.u.
  Total energy:                                           -435.8788746408 a.u.
  Dip. moment [a.u.]:                  [ -54.422951,  181.430198,    0.216562]
  Total dipole [Debye]:                                             481.450225
  <r^2> [a.u.]:                        [ 163.029905,  923.450343,   93.315613]
  Total <r^2> [a.u.]:                                              1179.795861
--------------------------------------------------------------------------------
  Starting Davidson ... 
--------------------------------------------------------------------------------
   It NVec Conv  Avg. Norm  Max. Norm  Conv. states           Remark
--------------------------------------------------------------------------------
        20    0  2.064e-01  1.149e+00 10.9226 n n n n n n n n Guess.
    1   40    0  4.668e-02  5.878e-01 10.7592 n n n n n n n n 
    2   60    0  9.336e-03  1.106e-01 10.7580 n n n n n n n n 
    3   80    0  3.156e-03  3.531e-02 10.7580 n n n n n n n n 
    4  100    0  2.098e-03  2.803e-02 10.7580 n n n n n n n n 
    5   40    0  1.492e-03  1.868e-02 10.7580 n n n n n n n n Subspace collapsed.
    6   60    0  1.520e-03  2.169e-02 10.7580 n n n n n n n n 
    7   80    0  1.779e-03  2.590e-02 10.7580 n n n n n n n n 
    8  100    2  1.409e-03  1.981e-02 10.7580 y y n n n n n n 
    9   40    6  8.240e-04  1.164e-02 10.7580 y y n y y n y y Subspace collapsed.
   10   60    7  5.842e-04  7.824e-03 10.7580 y y n y y n y y 
   11   80    9  6.410e-04  7.524e-03 10.7580 y y y y y y y y 
   12  100   10  8.661e-04  1.171e-02 10.7580 y y y y y y y y 
   13   40   13  5.630e-04  6.764e-03 10.7580 y y y y y y y y Subspace collapsed.
   14   60   14  4.262e-04  5.845e-03 10.7580 y y y y y y y y 
   15   80   15  5.233e-04  7.298e-03 10.7580 y y y y y y y y 
   16  100   15  7.156e-04  9.174e-03 10.7580 y y y y y y y y 
   17   38   16  4.717e-04  6.767e-03 10.7580 y y y y y y y y Subspace collapsed.
   18   56   16  3.987e-04  5.289e-03 10.7580 y y y y y y y y 
   19   57   16  3.982e-04  5.303e-03 10.7580 y y y y y y y y 
   20   58   16  3.940e-04  5.174e-03 10.7580 y y y y y y y y 
   21   59   16  3.944e-04  5.191e-03 10.7580 y y y y y y y y 
   22   60   16  3.950e-04  5.205e-03 10.7580 y y y y y y y y 
   23   75   16  5.083e-04  6.475e-03 10.7580 y y y y y y y y 
   24   86   16  6.511e-04  9.394e-03 10.7580 y y y y y y y y 
   25   97   17  4.550e-03  8.878e-02 10.7580 y y y y y y y y 
   26  100   17  4.490e-03  8.750e-02 10.7580 y y y y y y y y 
   27   31   17  1.995e-03  3.832e-02 10.7580 y y y y y y y y Subspace collapsed.
   28   42   17  1.270e-03  2.254e-02 10.7580 y y y y y y y y 
   29   53   17  8.864e-04  1.412e-02 10.7580 y y y y y y y y 
   30   64   17  8.291e-04  1.491e-02 10.7580 y y y y y y y y 
   31   74   17  1.106e-03  2.114e-02 10.7580 y y y y y y y y 
   32   74   17  1.106e-03  2.114e-02 10.7580 y y y y y y y y 
   33   94   17  8.684e-04  1.642e-02 10.7580 y y y y y y y y 
   34   95   17  8.642e-04  1.632e-02 10.7580 y y y y y y y y 
   35   95   17  8.642e-04  1.632e-02 10.7580 y y y y y y y y 
   36   95   17  8.642e-04  1.632e-02 10.7580 y y y y y y y y 
   37  100   17  8.640e-04  1.634e-02 10.7580 y y y y y y y y 
   38   20   17  8.640e-04  1.634e-02 10.7580 y y y y y y y y Subspace collapsed.
   39   21   17  8.493e-04  1.604e-02 10.7580 y y y y y y y y 
   40   27   17  4.730e-04  8.938e-03 10.7580 y y y y y y y y 
   41   33   17  3.752e-04  7.049e-03 10.7580 y y y y y y y y 
   42   39   17  3.688e-04  6.855e-03 10.7580 y y y y y y y y 
   43   45   17  4.939e-04  9.268e-03 10.7580 y y y y y y y y 
   44   50   17  6.026e-04  1.131e-02 10.7580 y y y y y y y y 
   45   55   17  6.467e-04  1.203e-02 10.7580 y y y y y y y y 
   46   60   17  4.944e-04  8.532e-03 10.7580 y y y y y y y y 
   47   65   17  3.133e-04  5.457e-03 10.7580 y y y y y y y y 
   48   70   17  1.975e-04  3.453e-03 10.7580 y y y y y y y y 
   49   75   17  1.610e-04  2.984e-03 10.7580 y y y y y y y y 
   50   80   17  1.523e-04  2.915e-03 10.7580 y y y y y y y y 
   51   85   17  1.038e-04  1.949e-03 10.7580 y y y y y y y y 
   52   90   17  8.009e-05  1.378e-03 10.7580 y y y y y y y y 
   53   94   17  5.053e-05  7.089e-04 10.7580 y y y y y y y y 
   54   98   17  2.716e-05  3.804e-04 10.7580 y y y y y y y y 
   55  100   17  1.570e-05  1.962e-04 10.7580 y y y y y y y y 
   56   23   17  7.302e-06  9.287e-05 10.7580 y y y y y y y y Subspace collapsed.
   57   26   17  5.312e-06  7.302e-05 10.7580 y y y y y y y y 
   58   29   17  3.234e-06  4.583e-05 10.7580 y y y y y y y y 
   59   32   17  3.192e-06  5.362e-05 10.7580 y y y y y y y y 
--------------------------------------------------------------------------------
  Davidson Summary: 
 ------------------------------------------------------------
  State  0: excitation energy =  10.7580 a.u.   (converged)
  State  1: excitation energy =  10.8274 a.u.   (converged)
  State  2: excitation energy =  11.1642 a.u.   (converged)
  State  3: excitation energy =  11.1677 a.u.   (converged)
  State  4: excitation energy =  11.1724 a.u.   (converged)
  State  5: excitation energy =  11.1804 a.u.   (converged)
  State  6: excitation energy =  11.2388 a.u.   (converged)
  State  7: excitation energy =  11.2458 a.u.   (converged)
  State  8: excitation energy =  11.2575 a.u.   (converged)
  State  9: excitation energy =  11.5167 a.u.   (converged)
  State 10: excitation energy =  11.5674 a.u.   (converged)
  State 11: excitation energy =  11.5680 a.u.   (converged)
  State 12: excitation energy =  11.5682 a.u.   (converged)
  State 13: excitation energy =  11.5862 a.u.   (converged)
  State 14: excitation energy =  11.5869 a.u.   (converged)
  State 15: excitation energy =  11.6824 a.u.   (converged)
  State 16: excitation energy =  11.7049 a.u.   (converged)
  State 17: excitation energy =  12.2070 a.u.   (not converged)
  State 18: excitation energy =  12.2088 a.u.   (not converged)
  State 19: excitation energy =  12.2115 a.u.   (not converged)
 ------------------------------------------------------------


--------------------------------------------------------------------------------
                             Excited State Summary
--------------------------------------------------------------------------------

  Excited state  1 (A)                                             [converged]
  ----------------------------------------------------------------------------
  Term symbol:  2 (-) A                                     R^2 =  4.94370e-14

  Total energy:                                           -425.1208907003 a.u.
  Excitation energy:                                             292.739631 eV

  Osc. strength:                                                      0.000000
  Trans. dip. moment [a.u.]:           [   0.000055,    0.000132,   -0.000037]
  <i|r^2|0> [a.u.]:                    [  -0.000082,    0.001500,    0.000046]

  V1^2 = 0.9550, V2^2 = 0.0450

  Important amplitudes:
     core i     occ j      vir a      vir b          v   
    ------------------------------------------------------
     5 (A) A              22 (A) A                 0.6545
     5 (A) B              21 (A) B                -0.6530
    ------------------------------------------------------
  ----------------------------------------------------------------------------


  Excited state  2 (A)                                             [converged]
  ----------------------------------------------------------------------------
  Term symbol:  3 (-) A                                     R^2 =  5.50738e-14

  Total energy:                                           -425.0514931541 a.u.
  Excitation energy:                                             294.628034 eV

  Osc. strength:                                                      0.088998
  Trans. dip. moment [a.u.]:           [  -0.037891,   -0.098450,    0.034664]
  <i|r^2|0> [a.u.]:                    [   0.057610,   -1.119608,   -0.038584]

  V1^2 = 0.9493, V2^2 = 0.0507

  Important amplitudes:
     core i     occ j      vir a      vir b          v   
    ------------------------------------------------------
     5 (A) B              21 (A) B                -0.6659
     5 (A) A              22 (A) A                -0.6644
    ------------------------------------------------------
  ----------------------------------------------------------------------------


  Excited state  3 (A)                                             [converged]
  ----------------------------------------------------------------------------
  Term symbol:  4 (-) A                                     R^2 =  1.32562e-13

  Total energy:                                           -424.7146341546 a.u.
  Excitation energy:                                             303.794434 eV

  Osc. strength:                                                      0.000000
  Trans. dip. moment [a.u.]:           [   0.000011,   -0.000012,    0.000005]
  <i|r^2|0> [a.u.]:                    [  -0.000015,   -0.000126,   -0.000000]

  V1^2 = 0.9493, V2^2 = 0.0507

  Important amplitudes:
     core i     occ j      vir a      vir b          v   
    ------------------------------------------------------
     5 (A) B              23 (A) B                 0.5491
     5 (A) A              23 (A) A                 0.5305
    ------------------------------------------------------
  ----------------------------------------------------------------------------


  Excited state  4 (A)                                             [converged]
  ----------------------------------------------------------------------------
  Term symbol:  5 (-) A                                     R^2 =  9.16864e-14

  Total energy:                                           -424.7111736747 a.u.
  Excitation energy:                                             303.888598 eV

  Osc. strength:                                                      0.000054
  Trans. dip. moment [a.u.]:           [  -0.002223,    0.001199,    0.000931]
  <i|r^2|0> [a.u.]:                    [   0.003857,    0.013623,   -0.000907]

  V1^2 = 0.8699, V2^2 = 0.1301

  Important amplitudes:
     core i     occ j      vir a      vir b          v   
    ------------------------------------------------------
     5 (A) B              22 (A) B                -0.8129
     5 (A) B              25 (A) B                -0.2437
    ------------------------------------------------------
  ----------------------------------------------------------------------------


  Excited state  5 (A)                                             [converged]
  ----------------------------------------------------------------------------
  Term symbol:  6 (-) A                                     R^2 =  1.53267e-13

  Total energy:                                           -424.7064416251 a.u.
  Excitation energy:                                             304.017364 eV

  Osc. strength:                                                      0.000022
  Trans. dip. moment [a.u.]:           [  -0.001410,    0.000757,    0.000591]
  <i|r^2|0> [a.u.]:                    [   0.002455,    0.008589,   -0.000576]

  V1^2 = 0.9262, V2^2 = 0.0738

  Important amplitudes:
     core i     occ j      vir a      vir b          v   
    ------------------------------------------------------
     5 (A) B              25 (A) B                 0.4505
     5 (A) B              22 (A) B                -0.4270
    ------------------------------------------------------
  ----------------------------------------------------------------------------


  Excited state  6 (A)                                             [converged]
  ----------------------------------------------------------------------------
  Term symbol:  7 (-) A                                     R^2 =  3.31787e-13

  Total energy:                                           -424.6984977244 a.u.
  Excitation energy:                                             304.233528 eV

  Osc. strength:                                                      0.000000
  Trans. dip. moment [a.u.]:           [  -0.000026,   -0.000146,    0.000047]
  <i|r^2|0> [a.u.]:                    [   0.000086,   -0.001568,   -0.000000]

  V1^2 = 0.9313, V2^2 = 0.0687

  Important amplitudes:
     core i     occ j      vir a      vir b          v   
    ------------------------------------------------------
     5 (A) B              24 (A) B                 0.5711
     5 (A) A              25 (A) A                -0.4986
    ------------------------------------------------------
  ----------------------------------------------------------------------------


  Excited state  7 (A)                                             [converged]
  ----------------------------------------------------------------------------
  Term symbol:  8 (-) A                                     R^2 =  2.11557e-13

  Total energy:                                           -424.6400983295 a.u.
  Excitation energy:                                             305.822657 eV

  Osc. strength:                                                      0.111665
  Trans. dip. moment [a.u.]:           [   0.058599,    0.025805,    0.103941]
  <i|r^2|0> [a.u.]:                    [  -0.107051,    0.285794,   -0.090874]

  V1^2 = 0.9407, V2^2 = 0.0593

  Important amplitudes:
     core i     occ j      vir a      vir b          v   
    ------------------------------------------------------
     5 (A) B              23 (A) B                 0.5762
     5 (A) A              23 (A) A                -0.5512
    ------------------------------------------------------
  ----------------------------------------------------------------------------


  Excited state  8 (A)                                             [converged]
  ----------------------------------------------------------------------------
  Term symbol:  9 (-) A                                     R^2 =  2.90594e-13

  Total energy:                                           -424.6330989093 a.u.
  Excitation energy:                                             306.013121 eV

  Osc. strength:                                                      0.113098
  Trans. dip. moment [a.u.]:           [  -0.101420,    0.053320,    0.044233]
  <i|r^2|0> [a.u.]:                    [   0.180614,    0.602352,   -0.043127]

  V1^2 = 0.9410, V2^2 = 0.0590

  Important amplitudes:
     core i     occ j      vir a      vir b          v   
    ------------------------------------------------------
     5 (A) B              25 (A) B                -0.5512
     5 (A) A              24 (A) A                -0.4918
    ------------------------------------------------------
  ----------------------------------------------------------------------------


  Excited state  9 (A)                                             [converged]
  ----------------------------------------------------------------------------
  Term symbol:  10 (-) A                                    R^2 =  1.73654e-13

  Total energy:                                           -424.6213554173 a.u.
  Excitation energy:                                             306.332677 eV

  Osc. strength:                                                      0.034271
  Trans. dip. moment [a.u.]:           [   0.011502,    0.055660,   -0.036553]
  <i|r^2|0> [a.u.]:                    [  -0.036765,    0.601064,    0.014372]

  V1^2 = 0.9198, V2^2 = 0.0802

  Important amplitudes:
     core i     occ j      vir a      vir b          v   
    ------------------------------------------------------
     5 (A) B              24 (A) B                 0.5926
     5 (A) A              25 (A) A                 0.5051
    ------------------------------------------------------
  ----------------------------------------------------------------------------


  Excited state 10 (A)                                             [converged]
  ----------------------------------------------------------------------------
  Term symbol:  11 (-) A                                    R^2 =  2.37773e-13

  Total energy:                                           -424.3622218675 a.u.
  Excitation energy:                                             313.384060 eV

  Osc. strength:                                                      0.000000
  Trans. dip. moment [a.u.]:           [   0.000016,    0.000048,   -0.000016]
  <i|r^2|0> [a.u.]:                    [  -0.000031,    0.000536,    0.000009]

  V1^2 = 0.9177, V2^2 = 0.0823

  Important amplitudes:
     core i     occ j      vir a      vir b          v   
    ------------------------------------------------------
     5 (A) B              26 (A) B                -0.6444
     5 (A) A              26 (A) A                 0.6435
    ------------------------------------------------------
  ----------------------------------------------------------------------------


  Excited state 11 (A)                                             [converged]
  ----------------------------------------------------------------------------
  Term symbol:  12 (-) A                                    R^2 =  2.33065e-13

  Total energy:                                           -424.3114290633 a.u.
  Excitation energy:                                             314.766202 eV

  Osc. strength:                                                      0.022907
  Trans. dip. moment [a.u.]:           [  -0.019074,   -0.048409,    0.016224]
  <i|r^2|0> [a.u.]:                    [   0.012659,   -0.565228,   -0.034788]

  V1^2 = 0.9178, V2^2 = 0.0822

  Important amplitudes:
     core i     occ j      vir a      vir b          v   
    ------------------------------------------------------
     5 (A) A              26 (A) A                 0.6644
     5 (A) B              26 (A) B                 0.6644
    ------------------------------------------------------
  ----------------------------------------------------------------------------


  Excited state 12 (A)                                             [converged]
  ----------------------------------------------------------------------------
  Term symbol:  13 (-) A                                    R^2 =  3.28620e-13

  Total energy:                                           -424.3108643791 a.u.
  Excitation energy:                                             314.781568 eV

  Osc. strength:                                                      0.000002
  Trans. dip. moment [a.u.]:           [   0.000004,   -0.000344,    0.000451]
  <i|r^2|0> [a.u.]:                    [  -0.000189,   -0.004044,   -0.000562]

  V1^2 = 0.8954, V2^2 = 0.1046

  Important amplitudes:
     core i     occ j      vir a      vir b          v   
    ------------------------------------------------------
     5 (A) A              27 (A) A                -0.5449
     5 (A) B              27 (A) B                 0.5391
    ------------------------------------------------------
  ----------------------------------------------------------------------------


  Excited state 13 (A)                                             [converged]
  ----------------------------------------------------------------------------
  Term symbol:  14 (-) A                                    R^2 =  6.89709e-13

  Total energy:                                           -424.3106450618 a.u.
  Excitation energy:                                             314.787536 eV

  Osc. strength:                                                      0.000172
  Trans. dip. moment [a.u.]:           [   0.003836,   -0.002244,   -0.001582]
  <i|r^2|0> [a.u.]:                    [  -0.006894,   -0.025279,    0.001379]

  V1^2 = 0.8953, V2^2 = 0.1047

  Important amplitudes:
     core i     occ j      vir a      vir b          v   
    ------------------------------------------------------
     5 (A) A              28 (A) A                -0.5747
     5 (A) B              28 (A) B                 0.4980
    ------------------------------------------------------
  ----------------------------------------------------------------------------


  Excited state 14 (A)                                             [converged]
  ----------------------------------------------------------------------------
  Term symbol:  15 (-) A                                    R^2 =  6.44171e-13

  Total energy:                                           -424.2926455752 a.u.
  Excitation energy:                                             315.277327 eV

  Osc. strength:                                                      0.034666
  Trans. dip. moment [a.u.]:           [   0.029757,    0.009276,    0.059300]
  <i|r^2|0> [a.u.]:                    [  -0.053193,    0.103676,   -0.050206]

  V1^2 = 0.8985, V2^2 = 0.1015

  Important amplitudes:
     core i     occ j      vir a      vir b          v   
    ------------------------------------------------------
     5 (A) B              27 (A) B                -0.5837
     5 (A) A              27 (A) A                -0.5777
    ------------------------------------------------------
  ----------------------------------------------------------------------------


  Excited state 15 (A)                                             [converged]
  ----------------------------------------------------------------------------
  Term symbol:  16 (-) A                                    R^2 =  3.85998e-13

  Total energy:                                           -424.2919395387 a.u.
  Excitation energy:                                             315.296539 eV

  Osc. strength:                                                      0.035201
  Trans. dip. moment [a.u.]:           [  -0.055894,    0.029759,    0.023393]
  <i|r^2|0> [a.u.]:                    [   0.099374,    0.334119,   -0.021248]

  V1^2 = 0.8984, V2^2 = 0.1016

  Important amplitudes:
     core i     occ j      vir a      vir b          v   
    ------------------------------------------------------
     5 (A) B              28 (A) B                 0.6145
     5 (A) A              28 (A) A                 0.5389
    ------------------------------------------------------
  ----------------------------------------------------------------------------


  Excited state 16 (A)                                             [converged]
  ----------------------------------------------------------------------------
  Term symbol:  17 (-) A                                    R^2 =  8.83201e-13

  Total energy:                                           -424.1964646505 a.u.
  Excitation energy:                                             317.894543 eV

  Osc. strength:                                                      0.000444
  Trans. dip. moment [a.u.]:           [  -0.002465,   -0.006664,    0.002545]
  <i|r^2|0> [a.u.]:                    [   0.006616,   -0.072903,    0.000123]

  V1^2 = 0.8861, V2^2 = 0.1139

  Important amplitudes:
     core i     occ j      vir a      vir b          v   
    ------------------------------------------------------
     5 (A) A              29 (A) A                 0.7223
     5 (A) B              29 (A) B                -0.5014
    ------------------------------------------------------
  ----------------------------------------------------------------------------


  Excited state 17 (A)                                             [converged]
  ----------------------------------------------------------------------------
  Term symbol:  18 (-) A                                    R^2 =  8.50558e-13

  Total energy:                                           -424.1739282347 a.u.
  Excitation energy:                                             318.507790 eV

  Osc. strength:                                                      0.014487
  Trans. dip. moment [a.u.]:           [  -0.014144,   -0.038070,    0.014393]
  <i|r^2|0> [a.u.]:                    [   0.037375,   -0.416977,    0.000306]

  V1^2 = 0.8876, V2^2 = 0.1124

  Important amplitudes:
     core i     occ j      vir a      vir b          v   
    ------------------------------------------------------
     5 (A) B              29 (A) B                 0.7423
     5 (A) A              29 (A) A                 0.5259
    ------------------------------------------------------
  ----------------------------------------------------------------------------


  Excited state 18 (A)                                         [not converged]
  ----------------------------------------------------------------------------
  Term symbol:  19 (-) A                                    R^2 =  2.71755e-05

  Total energy:                                           -423.6718769716 a.u.
  Excitation energy:                                             332.169300 eV


  V1^2 = 0.8627, V2^2 = 0.1373

  Important amplitudes:
     core i     occ j      vir a      vir b          v   
    ------------------------------------------------------
     5 (A) A              31 (A) A                -0.6201
     5 (A) A              33 (A) A                -0.6049
    ------------------------------------------------------
  ----------------------------------------------------------------------------


  Excited state 19 (A)                                         [not converged]
  ----------------------------------------------------------------------------
  Term symbol:  20 (-) A                                    R^2 =  2.14999e-05

  Total energy:                                           -423.6700901810 a.u.
  Excitation energy:                                             332.217921 eV


  V1^2 = 0.8574, V2^2 = 0.1426

  Important amplitudes:
     core i     occ j      vir a      vir b          v   
    ------------------------------------------------------
     5 (A) A              34 (A) A                -0.5717
     5 (A) A              30 (A) A                -0.5541
    ------------------------------------------------------
  ----------------------------------------------------------------------------


  Excited state 20 (A)                                         [not converged]
  ----------------------------------------------------------------------------
  Term symbol:  21 (-) A                                    R^2 =  5.36204e-05

  Total energy:                                           -423.6673649568 a.u.
  Excitation energy:                                             332.292078 eV


  V1^2 = 0.8629, V2^2 = 0.1371

  Important amplitudes:
     core i     occ j      vir a      vir b          v   
    ------------------------------------------------------
     5 (A) B              33 (A) B                -0.7249
     5 (A) B              30 (A) B                -0.3954
    ------------------------------------------------------
  ----------------------------------------------------------------------------


--------------------------------------------------------------------------------
  Time of ADC calculation:  CPU 1411.56 s  wall 1447.17 s
================================================================================
 
 --------------------------------------------------------------
 
                    Orbital Energies (a.u.)
 --------------------------------------------------------------
 
 Alpha MOs
 -- Occupied --
-26.739 -26.739 -26.735 -26.623 -11.964  -2.143  -2.037  -2.031
 -1.879  -1.316  -1.216  -1.215  -1.168  -1.065  -1.057  -1.046
 -1.027  -1.019  -1.010  -0.935  -0.932
 -- Virtual --
 -0.297   0.130   0.134   0.134   0.350   0.382   0.386   0.475
  0.942   0.980   1.003   1.019   1.022   1.036   1.175   1.205
  1.226   1.297   1.298   1.315   1.373   1.390   1.414   1.612
  1.634   1.639   1.731   1.740   1.783   1.801   1.803   1.836
  1.856   1.868   1.927   1.939   1.964   2.018   2.023   2.068
  2.463   2.509   2.519   2.697   2.844   2.848   3.120   3.123
  3.288   3.731   4.266   4.468   4.488   6.762
 
 Beta MOs
 -- Occupied --
-26.739 -26.739 -26.735 -26.574 -11.964  -2.143  -2.037  -2.031
 -1.687  -1.316  -1.216  -1.215  -1.166  -1.058  -1.057  -1.029
 -1.027  -1.010  -0.883  -0.881
 -- Virtual --
 -0.297  -0.126   0.130   0.135   0.136   0.350   0.382   0.388
  0.482   0.956   1.007   1.012   1.024   1.041   1.052   1.213
  1.233   1.240   1.299   1.299   1.315   1.401   1.415   1.470
  1.628   1.641   1.645   1.741   1.742   1.783   1.814   1.815
  1.853   1.930   1.937   1.949   1.958   1.979   2.028   2.052
  2.068   2.465   2.510   2.520   2.703   2.844   2.849   3.120
  3.123   3.291   3.767   4.266   4.468   4.489   6.764
 --------------------------------------------------------------
 
          Ground-State Mulliken Net Atomic Charges

     Atom                 Charge (a.u.)    Spin (a.u.)
  --------------------------------------------------------
      1 C                     1.353378      -0.006105
      2 F                    -0.122023       0.001378
      3 F                    -0.122345       0.001293
      4 F                     0.019645       1.003532
      5 F                    -0.128654      -0.000097
  --------------------------------------------------------
  Sum of atomic charges =     1.000000
  Sum of spin   charges =     1.000000

 -----------------------------------------------------------------
                    Cartesian Multipole Moments
 -----------------------------------------------------------------
    Charge (ESU x 10^10)
                 4.8032
    Dipole Moment (Debye)
         X      -2.1932      Y      14.3206      Z      -1.0721
       Tot      14.5272
    Quadrupole Moments (Debye-Ang)
        XX     -19.5434     XY      -6.2910     YY      22.9922
        XZ       0.0408     YZ      -3.6059     ZZ     -20.7973
    Octopole Moments (Debye-Ang^2)
       XXX      41.8171    XXY     -46.7024    XYY      -3.3884
       YYY     -12.4572    XXZ       1.2062    XYZ       0.3529
       YYZ     -11.8703    XZZ      13.4869    YZZ     -48.9532
       ZZZ       0.4336
    Hexadecapole Moments (Debye-Ang^3)
      XXXX    -129.2643   XXXY      94.9988   XXYY    -150.8678
      XYYY      45.9538   YYYY    -378.8113   XXXZ      -0.4201
      XXYZ       4.6326   XYYZ       2.0679   YYYZ     -32.3595
      XXZZ     -32.4152   XYZZ      30.2153   YYZZ    -144.6114
      XZZZ       1.8361   YZZZ       8.6119   ZZZZ     -74.3643
 -----------------------------------------------------------------
Archival summary:
1\1\tp-linux1\SP\HF\6-31G*\41(1+,2)\thomas\WedMar2218:27:042017WedMar2218:27:042017\0\\#,HF,6-31G*,\\1,2\F\C,1,1.25298\F,2,1.25347,1,114.851\F,2,1.26201,1,114.459,3,135.369,0\F,2,2.38418,1,75.5782,3,66.3926,0\\HF=-435.122816\\@

 Total job time:  1493.90s(wall), 1423.42s(cpu) 
 Wed Mar 22 18:27:04 2017

        *************************************************************
        *                                                           *
        *  Thank you very much for using Q-Chem.  Have a nice day.  *
        *                                                           *
        *************************************************************


0 sent ACK to 0 
now end server 0 ... 
cleanup process ... done
