
Running Job 1 of 1 ddtraj1t9.inp
qchem ddtraj1t9.inp_9400.0 /scratch/qchem/qchem9400/ 1
/mnt/software/qchem/bin/mpi/mpirun_qchem -machinefile /mnt/software/qchem/bin/mpi/machines -np 1 /mnt/software/qchem/exe/qcprog.exe ddtraj1t9.inp_9400.0 /scratch/qchem/qchem9400/

Process 0 of 1 is on tp-linux1 - thread support 0
initial socket setup ...start
initial socket setup ...done 
now start server 0 ... 

cmd = ssh tp-linux1 /mnt/software/qchem/bin/get_hostid 231071467 > /scratch/qchem/qchem9400/lic.dat
                  Welcome to Q-Chem
     A Quantum Leap Into The Future Of Chemistry


 Q-Chem 4.3, Q-Chem, Inc., Pleasanton, CA (2015)

 Y. Shao,  Z. Gan,  E. Epifanovsky,  A. T. B. Gilbert,  M. Wormit,  
 J. Kussmann,  A. W. Lange,  A. Behn,  J. Deng,  X. Feng,  D. Ghosh,  
 M. Goldey,  P. R. Horn,  L. D. Jacobson,  I. Kaliman,  R. Z. Khaliullin,  
 T. Kus,  A. Landau,  J. Liu,  E. I. Proynov,  Y. M. Rhee,  R. M. Richard,  
 M. A. Rohrdanz,  R. P. Steele,  E. J. Sundstrom,  H. L. Woodcock III,  
 P. M. Zimmerman,  D. Zuev,  B. Albrecht,  E. Alguire,  B. Austin,  
 S. A. Baeppler,  G. J. O. Beran,  Y. A. Bernard,  E. Berquist,  
 K. Brandhorst,  K. B. Bravaya,  S. T. Brown,  D. Casanova,  C.-M. Chang,  
 Y. Chen,  S. H. Chien,  K. D. Closser,  D. L. Crittenden,  M. Diedenhofen,  
 R. A. DiStasio Jr.,  H. Do,  A. D. Dutoi,  R. G. Edgar,  P.-T. Fang,  
 S. Fatehi,  Q. Feng,  L. Fusti-Molnar,  A. Ghysels,  
 A. Golubeva-Zadorozhnaya,  J. Gomes,  A. Gunina,  M. W. D. Hanson-Heine,  
 P. H. P. Harbach,  A. W. Hauser,  E. G. Hohenstein,  Z. C. Holden,  K. Hui,  
 T.-C. Jagau,  H. Ji,  B. Kaduk,  K. Khistyaev,  Jaehoon Kim,  Jihan Kim,  
 R. A. King,  P. Klunzinger,  D. Kosenkov,  T. Kowalczyk,  C. M. Krauter,  
 K. U. Lao,  A. Laurent,  K. V. Lawler,  S. Lehtola,  S. V. Levchenko,  
 C. Y. Lin,  Y.-S. Lin,  F. Liu,  E. Livshits,  R. C. Lochan,  A. Luenser,  
 P. Manohar,  S. F. Manzer,  S.-P. Mao,  N. Mardirossian,  A. V. Marenich,  
 L. A. Martinez-Martinez,  S. A. Maurer,  N. J. Mayhall,  K. Nanda,  
 C. M. Oana,  R. Olivares-Amaya,  D. P. O'Neill,  J. A. Parkhill,  
 T. M. Perrine,  R. Peverati,  P. A. Pieniazek,  F. Plasser,  A. Prociuk,  
 D. R. Rehn,  E. Rosta,  N. J. Russ,  N. Sergueev,  S. M. Sharada,  
 S. Sharma,  D. W. Small,  A. Sodt,  T. Stauch,  T. Stein,  D. Stuck,  
 Y.-C. Su,  A. J. W. Thom,  T. Tsuchimochi,  L. Vogt,  O. Vydrov,  T. Wang,  
 M. A. Watson,  J. Wenzel,  A. White,  C. F. Williams,  V. Vanovschi,  
 S. Yeganeh,  S. R. Yost,  Z.-Q. You,  I. Y. Zhang,  X. Zhang,  Y. Zhao,  
 B. R. Brooks,  G. K. L. Chan,  D. M. Chipman,  C. J. Cramer,  
 W. A. Goddard III,  M. S. Gordon,  W. J. Hehre,  A. Klamt,  
 H. F. Schaefer III,  M. W. Schmidt,  C. D. Sherrill,  D. G. Truhlar,  
 A. Warshel,  X. Xu,  A. Aspuru-Guzik,  R. Baer,  A. T. Bell,  N. A. Besley,  
 J.-D. Chai,  A. Dreuw,  B. D. Dunietz,  T. R. Furlani,  S. R. Gwaltney,  
 C.-P. Hsu,  Y. Jung,  J. Kong,  D. S. Lambrecht,  W. Liang,  C. Ochsenfeld,  
 V. A. Rassolov,  L. V. Slipchenko,  J. E. Subotnik,  T. Van Voorhis,  
 J. M. Herbert,  A. I. Krylov,  P. M. W. Gill,  M. Head-Gordon

 Contributors to earlier versions of Q-Chem not listed above: 
 R. D. Adamson,  J. Baker,  E. F. C. Byrd,  A. K. Chakraborty,  C.-L. Cheng,  
 H. Dachsel,  R. J. Doerksen,  G. Hawkins,  A. Heyden,  S. Hirata,  
 G. Kedziora,  F. J. Keil,  C. Kelley,  P. P. Korambath,  W. Kurlancheek,  
 A. M. Lee,  M. S. Lee,  D. Liotard,  I. Lotan,  P. E. Maslen,  N. Nair,  
 D. Neuhauser,  R. Olson,  B. Peters,  J. Ritchie,  N. E. Schultz,  
 N. Shenvi,  A. C. Simmonett,  K. S. Thanthiriwatte,  Q. Wu,  W. Zhang

 Please cite Q-Chem as follows:
 Y. Shao et al., Mol. Phys. 113, 184-215 (2015)
 DOI: 10.1080/00268976.2014.952696

 Q-Chem 4.3.0 for Intel X86 Linux

 Parts of Q-Chem use Armadillo 5.200.1 (Boston Tea Smuggler).
 http://arma.sourceforge.net/

 Q-Chem begins on Wed Mar 22 14:06:34 2017  

Host: 
0

     Scratch files written to /scratch/qchem/qchem9400//
 Nov1815 1189b_ 19540  19532 5443   
 Parallel job on  1  processors
Processing $rem in /mnt/software/qchem/config/preferences.
 MEM_TOTAL  2000 

Checking the input file for inconsistencies... 	...done.

--------------------------------------------------------------
User input:
--------------------------------------------------------------
$comment
XAS calculation for valence excited states for CF4+ using cvs-adc(2) + 6-31G* basis set
job 1 - determination of HF orbitals
$end

$molecule
1 2
6  -0.598253  2.627658  -0.109342
9  0.581328  2.325232  0.007289
9  -1.139432  3.260549  0.785994
9  -1.167824  1.095872  0.469001
9  -1.135272  2.541452  -1.19322
$end

$comment
cvs-adc(2) calculation
$end

$rem
mem_total 3000
mem_static 1500
sym_ignore true
method cvs-adc(2)
basis 6-31G*
ee_singlets 20
cc_rest_occ 5                  !only excitations from the lowest N orbitals
unrestricted  true
max_scf_cycles 200
SCF_ALGORITHM = DIIS_GDM
SCF_CONVERGENCE = 7
THRESH = 10
$end
--------------------------------------------------------------
 ----------------------------------------------------------------
             Standard Nuclear Orientation (Angstroms)
    I     Atom           X                Y                Z
 ----------------------------------------------------------------
    1      C      -0.5982530000     2.6276580000    -0.1093420000
    2      F       0.5813280000     2.3252320000     0.0072890000
    3      F      -1.1394320000     3.2605490000     0.7859940000
    4      F      -1.1678240000     1.0958720000     0.4690010000
    5      F      -1.1352720000     2.5414520000    -1.1932200000
 ----------------------------------------------------------------
 Nuclear Repulsion Energy =   206.4666914800 hartrees
 There are       21 alpha and       20 beta electrons
 Requested basis set is 6-31G(d)
 There are 20 shells and 75 basis functions

 Total QAlloc Memory Limit   3000 MB
 Mega-Array Size      1467 MB
 MEM_STATIC part      1500 MB

                       Distance Matrix (Angstroms)
             C (  1)   F (  2)   F (  3)   F (  4)
   F (  2)  1.223305
   F (  3)  1.222723  2.107656
   F (  4)  1.733569  2.187244  2.187948
   F (  5)  1.212688  2.105870  2.105803  2.203120
 
 tim1(1): 
  0.000000000000000E+000
 tim1(2): 
  0.000000000000000E+000
 A cutoff of  1.0D-10 yielded    203 shell pairs
 There are      2978 function pairs
 
 -------------------------------------------------------
 OpenMP Integral Computing Module                       
 Release: version 1.0, May 2013, Q-Chem Inc. Pittsburgh 
 -------------------------------------------------------
 Integral Job Info:
 Integral job number is                      11
 Integral operator is                         1
 short-range coefficients                     0
 long-range coefficients              100000000
 Omega coefficients                           0
 if combine SR and LR in K                    0
 Integral screening is                        0
 Integral computing path is                   2
 max size of driver memory is            800000
 size of driver memory is                593474
 size of scratch memory is              2260544
 max col of scratch BK array               1296
 max len of scratch array in speh3          155
 max len of scratch index in speh4           18
 max int batch size is                      520
 min int batch size is                       52
 fixed nKL is                                52
 max L of basis functions is                  2
 order of int derivative is                   0
 number of shells is                         20
 number of basis is                          75
 number of cartesian basis is                75
 number of contracted shell pairs           203
 number of primitive shell pairs           1065
 maxK2 (contraction) of shell pair           36
 max number of K2 of shell pair               1
 max number of CS2 of shell pair             37
 max number of PS2 of shell pair            222
 mem total for path MDJ                   21832
 -------------------------------------------------------
 Smallest overlap matrix eigenvalue = 1.52E-03

 Scale SEOQF with 1.000000e+00/1.000000e-01/1.000000e+00

 Standard Electronic Orientation quadrupole field applied
 Nucleus-field energy     =     0.0000000109 hartrees
 Guess from superposition of atomic densities
 Warning:  Energy on first SCF cycle will be non-variational
 An unrestricted Hartree-Fock SCF calculation will be
 performed using Pulay DIIS + Geometric Direct Minimization
 SCF converges when RMS gradient is below 1.0E-07
 ---------------------------------------
  Cycle       Energy         DIIS Error
 ---------------------------------------
    1    -436.6470614773      9.39E-02
    2    -434.9105366122      1.83E-02
    3    -435.1110742935      7.92E-03 Done DIIS. Switching to GDM
    4    -435.1462670966      4.65E-02 Normal BFGS step
    5    -435.1495464798      1.96E-02 Normal BFGS step
    6    -435.1503480896      5.78E-03 Normal BFGS step
    7    -435.1504312921      5.41E-03 Normal BFGS step
    8    -435.1505492532      4.45E-03 Normal BFGS step
    9    -435.1506216750      3.63E-03 Normal BFGS step
   10    -435.1507601635      2.84E-03 Normal BFGS step
   11    -435.1508462477      2.37E-03 Normal BFGS step
   12    -435.1508854513      9.16E-04 Normal BFGS step
   13    -435.1508920916      2.62E-04 Normal BFGS step
   14    -435.1508929635      1.55E-04 Normal BFGS step
   15    -435.1508931364      1.44E-04 Normal BFGS step
   16    -435.1508932162      1.40E-04 Normal BFGS step
   17    -435.1508933187      1.37E-04 Normal BFGS step
   18    -435.1508935526      1.35E-04 Normal BFGS step
   19    -435.1508941060      1.58E-04 Normal BFGS step
   20    -435.1508955249      2.71E-04 Normal BFGS step
   21    -435.1508992715      4.75E-04 Normal BFGS step
   22    -435.1509086698      8.94E-04 Normal BFGS step
   23    -435.1509185650      1.82E-03 Normal BFGS step
   24    -435.1509447537      1.34E-03 Dog-leg BFGS step
   25    -435.1509728117      4.69E-03 Normal BFGS step
   26    -435.1509835916      2.27E-03 Normal BFGS step
   27    -435.1510354024      5.37E-04 Normal BFGS step
   28    -435.1510479796      1.76E-03 Normal BFGS step
   29    -435.1510624133      1.96E-03 Normal BFGS step
   30    -435.1511026712      1.37E-03 Normal BFGS step
   31    -435.1511200714      4.23E-04 Normal BFGS step
   32    -435.1511030537      6.81E-03 Line search: overstep
   33    -435.1511272568      1.09E-03 Dog-leg BFGS step
   34    -435.1511372514      1.35E-03 Normal BFGS step
   35    -435.1511460620      3.47E-04 Normal BFGS step
   36    -435.1511495902      5.31E-04 Normal BFGS step
   37    -435.1511515782      1.57E-04 Normal BFGS step
   38    -435.1511520689      1.28E-04 Normal BFGS step
   39    -435.1511521566      3.37E-05 Normal BFGS step
   40    -435.1511521704      2.13E-05 Normal BFGS step
   41    -435.1511521731      6.90E-06 Normal BFGS step
   42    -435.1511521736      5.78E-06 Normal BFGS step
   43    -435.1511521738      4.90E-06 Normal BFGS step
   44    -435.1511521739      3.74E-06 Normal BFGS step
   45    -435.1511521741      2.14E-06 Normal BFGS step
   46    -435.1511521742      1.03E-06 Normal BFGS step
   47    -435.1511521742      6.97E-07 Normal BFGS step
   48    -435.1511521742      2.57E-07 Normal BFGS step
   GDM::WARNING energy changes are now smaller than effective accuracy.
   GDM::        calculation will continue, but THRESH should be increased
   GDM::        or SCF_CONVERGENCE decreased.
   GDM::        effective_thresh =   4.177335023031192E-009
   49    -435.1511521742      1.45E-07 Normal BFGS step
   50    -435.1511521743      4.09E-08 Convergence criterion met
 ---------------------------------------
 <S^2> = 0.7540
 SCF time:  CPU 7.02 s  wall 23.00 s
 SCF   energy in the final basis set = -435.1511521743
 Total energy in the final basis set = -435.1511521743
================================================================================
|                                                                              |
|                                 A D C  M A N                                 |
|                                                                              |
 ------------------------------------------------------------------------------ 
|                                                                              |
| Components:                                                                  |
|                                                                              |
| - libvmm - 1.2-release                                                       |
|   Authors:                                                                   |
|   Evgeny Epifanovsky, Ilya Kaliman                                           |
|                                                                              |
| - libtensor - 2.4-trunk                                                      |
|   Authors:                                                                   |
|   Evgeny Epifanovsky, Michael Wormit, Dmitry Zuev, Sam Manzer                |
|                                                                              |
| - libwfa - 1.1-beta                                                          |
|   Authors:                                                                   |
|   Felix Plasser, Stefanie Baeppler, Benjamin Thomitzni, Michael Wormit       |
|                                                                              |
| - libadc - 1.0-beta                                                          |
|   Authors:                                                                   |
|   Michael Wormit, Philipp H. P. Harbach, Caroline Krauter, Dirk Rehn,        |
|   Matthias Schneider, Jan Wenzel                                             |
|                                                                              |
| - adcman - 2.4-beta                                                          |
|   Authors:                                                                   |
|   Michael Wormit, Philipp H. P. Harbach, Caroline Krauter, Dirk Rehn,        |
|   Jan Wenzel, Andreas Dreuw                                                  |
|                                                                              |
| Authors of earlier versions of ADCMAN:                                       |
| Andreas Dreuw, Jan Hendrik Starcke, Dirk Rehn, Michael Wormit                |
|                                                                              |
================================================================================

 
 Alpha MOs, Unrestricted
 -- Occupied --                  
-26.772 -26.717 -26.716 -26.716 -11.938  -2.161  -2.048  -2.043
  1 A     2 A     3 A     4 A     5 A     6 A     7 A     8 A                  
 -2.027  -1.315  -1.229  -1.225  -1.216  -1.186  -1.093  -1.053
  9 A    10 A    11 A    12 A    13 A    14 A    15 A    16 A                  
 -1.052  -1.029  -1.026  -1.015  -1.000
 17 A    18 A    19 A    20 A    21 A                                          
 -- Virtual --                   
 -0.117   0.078   0.222   0.232   0.403   0.426   0.437   0.445
 22 A    23 A    24 A    25 A    26 A    27 A    28 A    29 A                  
  0.943   0.963   0.976   1.022   1.024   1.068   1.265   1.275
 30 A    31 A    32 A    33 A    34 A    35 A    36 A    37 A                  
  1.277   1.282   1.287   1.305   1.323   1.329   1.481   1.590
 38 A    39 A    40 A    41 A    42 A    43 A    44 A    45 A                  
  1.600   1.616   1.697   1.707   1.784   1.790   1.795   1.961
 46 A    47 A    48 A    49 A    50 A    51 A    52 A    53 A                  
  1.964   1.981   1.986   2.047   2.065   2.068   2.083   2.129
 54 A    55 A    56 A    57 A    58 A    59 A    60 A    61 A                  
  2.479   2.693   2.706   2.740   3.018   3.032   3.279   3.284
 62 A    63 A    64 A    65 A    66 A    67 A    68 A    69 A                  
  3.308   3.883   4.397   4.965   5.010   6.360
 70 A    71 A    72 A    73 A    74 A    75 A                                  
 
 Beta MOs, Unrestricted
 -- Occupied --                  
-26.721 -26.718 -26.716 -26.716 -11.938  -2.156  -2.048  -2.043
  1 A     2 A     3 A     4 A     5 A     6 A     7 A     8 A                  
 -1.840  -1.312  -1.225  -1.223  -1.202  -1.063  -1.052  -1.051
  9 A    10 A    11 A    12 A    13 A    14 A    15 A    16 A                  
 -1.033  -0.999  -0.993  -0.984
 17 A    18 A    19 A    20 A                                                  
 -- Virtual --                   
 -0.258  -0.113   0.082   0.232   0.237   0.405   0.431   0.437
 21 A    22 A    23 A    24 A    25 A    26 A    27 A    28 A                  
  0.449   0.977   0.987   1.023   1.024   1.035   1.083   1.276
 29 A    30 A    31 A    32 A    33 A    34 A    35 A    36 A                  
  1.281   1.283   1.288   1.289   1.323   1.342   1.410   1.487
 37 A    38 A    39 A    40 A    41 A    42 A    43 A    44 A                  
  1.618   1.619   1.619   1.739   1.740   1.795   1.812   1.816
 45 A    46 A    47 A    48 A    49 A    50 A    51 A    52 A                  
  1.961   1.964   2.001   2.006   2.065   2.075   2.091   2.098
 53 A    54 A    55 A    56 A    57 A    58 A    59 A    60 A                  
  2.134   2.481   2.694   2.706   2.759   3.019   3.032   3.279
 61 A    62 A    63 A    64 A    65 A    66 A    67 A    68 A                  
  3.285   3.309   3.910   4.399   4.966   5.011   6.362
 69 A    70 A    71 A    72 A    73 A    74 A    75 A                          
 

--------------------------------------------------------------------------------
                                   HF Summary                                   
--------------------------------------------------------------------------------
  Energy:                                                 -435.1511521743 a.u.
  Dip. moment [a.u.]:                  [ -54.113255,  182.208446,   -0.037754]
  Total dipole [Debye]:                                             483.120264
  <r^2> [a.u.]:                        [ 159.100987,  903.960780,   88.605178]
  Total <r^2> [a.u.]:                                              1151.666945
--------------------------------------------------------------------------------

--------------------------------------------------------------------------------
                                 MP(2) Summary                                  
--------------------------------------------------------------------------------
  Energy contribution:                                      -0.7428292537 a.u.
  Total energy:                                           -435.8939814280 a.u.
  Dip. moment [a.u.]:                  [ -54.110083,  182.221871,   -0.046264]
  Total dipole [Debye]:                                             483.150686
  <r^2> [a.u.]:                        [ 158.899374,  904.160088,   88.415421]
  Total <r^2> [a.u.]:                                              1151.474884
--------------------------------------------------------------------------------
  Starting Davidson ... 
--------------------------------------------------------------------------------
   It NVec Conv  Avg. Norm  Max. Norm  Conv. states           Remark
--------------------------------------------------------------------------------
        20    0  2.101e-01  1.135e+00 11.0079 n n n n n n n n Guess.
    1   40    0  3.556e-02  3.704e-01 10.8496 n n n n n n n n 
    2   60    0  8.501e-03  8.303e-02 10.8481 n n n n n n n n 
    3   80    0  2.404e-03  2.548e-02 10.8480 n n n n n n n n 
    4  100    0  1.671e-03  2.155e-02 10.8480 n n n n n n n n 
    5   40    0  5.654e-04  6.567e-03 10.8480 n n n n n n n n Subspace collapsed.
    6   60    0  5.367e-04  7.187e-03 10.8480 n n n n n n n n 
    7   80    0  4.514e-04  6.258e-03 10.8480 n n n n n n n n 
    8  100    2  3.070e-04  4.352e-03 10.8480 y y n n n n n n 
    9   40    6  1.543e-04  2.138e-03 10.8480 y y y n y y n n Subspace collapsed.
   10   60    7  1.129e-04  1.603e-03 10.8480 y y y n y y y n 
   11   80    9  9.378e-05  1.306e-03 10.8480 y y y y y y y y 
   12  100   13  7.772e-05  1.104e-03 10.8480 y y y y y y y y 
   13   40   14  5.235e-05  7.512e-04 10.8480 y y y y y y y y Subspace collapsed.
   14   60   15  4.490e-05  6.474e-04 10.8480 y y y y y y y y 
   15   80   16  3.770e-05  5.512e-04 10.8480 y y y y y y y y 
   16   80   16  3.770e-05  5.512e-04 10.8480 y y y y y y y y 
   17  100   17  3.761e-05  5.336e-04 10.8480 y y y y y y y y 
   18   38   17  2.026e-05  2.931e-04 10.8480 y y y y y y y y Subspace collapsed.
   19   56   17  1.873e-05  2.665e-04 10.8480 y y y y y y y y 
   20   61   17  1.833e-05  2.575e-04 10.8480 y y y y y y y y 
   21   62   17  1.828e-05  2.559e-04 10.8480 y y y y y y y y 
   22   64   17  1.841e-05  2.585e-04 10.8480 y y y y y y y y 
   23   66   17  1.847e-05  2.590e-04 10.8480 y y y y y y y y 
   24   68   17  1.855e-05  2.598e-04 10.8480 y y y y y y y y 
   25   69   17  1.857e-05  2.598e-04 10.8480 y y y y y y y y 
   26   70   17  1.858e-05  2.593e-04 10.8480 y y y y y y y y 
   27   70   17  1.858e-05  2.593e-04 10.8480 y y y y y y y y 
   28   90   17  1.337e-05  1.897e-04 10.8480 y y y y y y y y 
   29  100   17  1.301e-05  1.807e-04 10.8480 y y y y y y y y 
   30   31   17  9.030e-06  1.361e-04 10.8480 y y y y y y y y Subspace collapsed.
   31   42   17  9.936e-06  1.591e-04 10.8480 y y y y y y y y 
   32   53   17  8.049e-06  1.275e-04 10.8480 y y y y y y y y 
   33   64   17  7.445e-06  1.206e-04 10.8480 y y y y y y y y 
   34   69   17  7.284e-06  1.177e-04 10.8480 y y y y y y y y 
   35   70   17  7.355e-06  1.188e-04 10.8480 y y y y y y y y 
   36   71   17  7.353e-06  1.185e-04 10.8480 y y y y y y y y 
   37   72   17  7.315e-06  1.179e-04 10.8480 y y y y y y y y 
   38   73   17  7.316e-06  1.179e-04 10.8480 y y y y y y y y 
   39   74   17  7.309e-06  1.176e-04 10.8480 y y y y y y y y 
   40   75   17  7.342e-06  1.184e-04 10.8480 y y y y y y y y 
   41   75   17  7.342e-06  1.184e-04 10.8480 y y y y y y y y 
   42   75   17  7.342e-06  1.184e-04 10.8480 y y y y y y y y 
   43   95   17  4.820e-06  7.169e-05 10.8480 y y y y y y y y 
   44   95   17  4.820e-06  7.169e-05 10.8480 y y y y y y y y 
   45   95   17  4.820e-06  7.169e-05 10.8480 y y y y y y y y 
   46  100   17  4.738e-06  7.082e-05 10.8480 y y y y y y y y 
   47   21   17  4.733e-06  7.082e-05 10.8480 y y y y y y y y Subspace collapsed.
   48   22   17  4.729e-06  7.082e-05 10.8480 y y y y y y y y 
   49   22   17  4.729e-06  7.082e-05 10.8480 y y y y y y y y 
   50   22   17  4.729e-06  7.082e-05 10.8480 y y y y y y y y 
   51   42   17  2.118e-06  3.199e-05 10.8480 y y y y y y y y 
   52   42   17  2.118e-06  3.199e-05 10.8480 y y y y y y y y 
   53   44   17  2.117e-06  3.196e-05 10.8480 y y y y y y y y 
   54   49   17  1.354e-06  1.983e-05 10.8480 y y y y y y y y 
   55   54   17  8.941e-07  1.260e-05 10.8480 y y y y y y y y 
   56   59   17  7.228e-07  1.042e-05 10.8480 y y y y y y y y 
   57   64   17  6.944e-07  1.060e-05 10.8480 y y y y y y y y 
   58   69   17  7.539e-07  1.169e-05 10.8480 y y y y y y y y 
   59   74   17  4.926e-07  8.401e-06 10.8480 y y y y y y y y 
--------------------------------------------------------------------------------
  Davidson Summary: 
 ------------------------------------------------------------
  State  0: excitation energy =  10.8480 a.u.   (converged)
  State  1: excitation energy =  10.9271 a.u.   (converged)
  State  2: excitation energy =  10.9602 a.u.   (converged)
  State  3: excitation energy =  11.1752 a.u.   (converged)
  State  4: excitation energy =  11.2305 a.u.   (converged)
  State  5: excitation energy =  11.2415 a.u.   (converged)
  State  6: excitation energy =  11.2470 a.u.   (converged)
  State  7: excitation energy =  11.3114 a.u.   (converged)
  State  8: excitation energy =  11.3219 a.u.   (converged)
  State  9: excitation energy =  11.5309 a.u.   (converged)
  State 10: excitation energy =  11.5779 a.u.   (converged)
  State 11: excitation energy =  11.5859 a.u.   (converged)
  State 12: excitation energy =  11.5914 a.u.   (converged)
  State 13: excitation energy =  11.6031 a.u.   (converged)
  State 14: excitation energy =  11.6055 a.u.   (converged)
  State 15: excitation energy =  11.6613 a.u.   (converged)
  State 16: excitation energy =  11.6800 a.u.   (converged)
  State 17: excitation energy =  12.1537 a.u.   (not converged)
  State 18: excitation energy =  12.1787 a.u.   (not converged)
  State 19: excitation energy =  12.1848 a.u.   (not converged)
 ------------------------------------------------------------


--------------------------------------------------------------------------------
                             Excited State Summary
--------------------------------------------------------------------------------

  Excited state  1 (A)                                             [converged]
  ----------------------------------------------------------------------------
  Term symbol:  2 (-) A                                     R^2 =  6.96814e-14

  Total energy:                                           -425.0459644618 a.u.
  Excitation energy:                                             295.189554 eV

  Osc. strength:                                                      0.000181
  Trans. dip. moment [a.u.]:           [  -0.001661,   -0.004428,    0.001642]
  <i|r^2|0> [a.u.]:                    [   0.003917,   -0.043690,   -0.000513]

  V1^2 = 0.9620, V2^2 = 0.0380

  Important amplitudes:
     core i     occ j      vir a      vir b          v   
    ------------------------------------------------------
     5 (A) A              22 (A) A                -0.6883
     5 (A) B              22 (A) B                 0.6360
    ------------------------------------------------------
  ----------------------------------------------------------------------------


  Excited state  2 (A)                                             [converged]
  ----------------------------------------------------------------------------
  Term symbol:  3 (-) A                                     R^2 =  1.02844e-13

  Total energy:                                           -424.9668900980 a.u.
  Excitation energy:                                             297.341277 eV

  Osc. strength:                                                      0.122557
  Trans. dip. moment [a.u.]:           [  -0.043624,   -0.114859,    0.041571]
  <i|r^2|0> [a.u.]:                    [   0.102135,   -1.138001,   -0.013661]

  V1^2 = 0.9583, V2^2 = 0.0417

  Important amplitudes:
     core i     occ j      vir a      vir b          v   
    ------------------------------------------------------
     5 (A) B              22 (A) B                -0.6967
     5 (A) A              22 (A) A                -0.6466
    ------------------------------------------------------
  ----------------------------------------------------------------------------


  Excited state  3 (A)                                             [converged]
  ----------------------------------------------------------------------------
  Term symbol:  4 (-) A                                     R^2 =  1.25951e-13

  Total energy:                                           -424.9338189028 a.u.
  Excitation energy:                                             298.241190 eV

  Osc. strength:                                                      0.000001
  Trans. dip. moment [a.u.]:           [  -0.000291,   -0.000069,    0.000159]
  <i|r^2|0> [a.u.]:                    [   0.001249,   -0.001154,   -0.000181]

  V1^2 = 0.8601, V2^2 = 0.1399

  Important amplitudes:
     core i     occ j      vir a      vir b          v   
    ------------------------------------------------------
     5 (A) B              21 (A) B                -0.9254
     5 (A) B   13 (A) A   22 (A) A   21 (A) B      0.0812
    ------------------------------------------------------
  ----------------------------------------------------------------------------


  Excited state  4 (A)                                             [converged]
  ----------------------------------------------------------------------------
  Term symbol:  5 (-) A                                     R^2 =  2.89045e-14

  Total energy:                                           -424.7188296811 a.u.
  Excitation energy:                                             304.091344 eV

  Osc. strength:                                                      0.000007
  Trans. dip. moment [a.u.]:           [  -0.000401,   -0.000842,    0.000165]
  <i|r^2|0> [a.u.]:                    [   0.000613,   -0.008919,   -0.000365]

  V1^2 = 0.9324, V2^2 = 0.0676

  Important amplitudes:
     core i     occ j      vir a      vir b          v   
    ------------------------------------------------------
     5 (A) A              23 (A) A                -0.6229
     5 (A) B              23 (A) B                 0.5967
    ------------------------------------------------------
  ----------------------------------------------------------------------------


  Excited state  5 (A)                                             [converged]
  ----------------------------------------------------------------------------
  Term symbol:  6 (-) A                                     R^2 =  4.59258e-14

  Total energy:                                           -424.6634465465 a.u.
  Excitation energy:                                             305.598396 eV

  Osc. strength:                                                      0.000008
  Trans. dip. moment [a.u.]:           [  -0.000852,    0.000454,    0.000356]
  <i|r^2|0> [a.u.]:                    [   0.002009,    0.004464,   -0.000193]

  V1^2 = 0.9544, V2^2 = 0.0456

  Important amplitudes:
     core i     occ j      vir a      vir b          v   
    ------------------------------------------------------
     5 (A) B              25 (A) B                 0.4946
     5 (A) A              24 (A) A                -0.4892
    ------------------------------------------------------
  ----------------------------------------------------------------------------


  Excited state  6 (A)                                             [converged]
  ----------------------------------------------------------------------------
  Term symbol:  7 (-) A                                     R^2 =  3.73828e-14

  Total energy:                                           -424.6525142689 a.u.
  Excitation energy:                                             305.895878 eV

  Osc. strength:                                                      0.000000
  Trans. dip. moment [a.u.]:           [   0.000099,    0.000041,    0.000186]
  <i|r^2|0> [a.u.]:                    [  -0.000178,    0.000489,   -0.000013]

  V1^2 = 0.9541, V2^2 = 0.0459

  Important amplitudes:
     core i     occ j      vir a      vir b          v   
    ------------------------------------------------------
     5 (A) B              24 (A) B                -0.4810
     5 (A) B              28 (A) B                 0.4797
    ------------------------------------------------------
  ----------------------------------------------------------------------------


  Excited state  7 (A)                                             [converged]
  ----------------------------------------------------------------------------
  Term symbol:  8 (-) A                                     R^2 =  8.23499e-14

  Total energy:                                           -424.6469526198 a.u.
  Excitation energy:                                             306.047219 eV

  Osc. strength:                                                      0.000457
  Trans. dip. moment [a.u.]:           [  -0.002171,    0.002736,   -0.006983]
  <i|r^2|0> [a.u.]:                    [  -0.014096,   -0.001522,   -0.016213]

  V1^2 = 0.9195, V2^2 = 0.0805

  Important amplitudes:
     core i     occ j      vir a      vir b          v   
    ------------------------------------------------------
     5 (A) B              23 (A) B                -0.6591
     5 (A) A              23 (A) A                -0.6357
    ------------------------------------------------------
  ----------------------------------------------------------------------------


  Excited state  8 (A)                                             [converged]
  ----------------------------------------------------------------------------
  Term symbol:  9 (-) A                                     R^2 =  3.54771e-14

  Total energy:                                           -424.5825640967 a.u.
  Excitation energy:                                             307.799319 eV

  Osc. strength:                                                      0.121631
  Trans. dip. moment [a.u.]:           [  -0.105125,    0.055898,    0.044200]
  <i|r^2|0> [a.u.]:                    [   0.244593,    0.553105,   -0.022962]

  V1^2 = 0.9456, V2^2 = 0.0544

  Important amplitudes:
     core i     occ j      vir a      vir b          v   
    ------------------------------------------------------
     5 (A) B              25 (A) B                -0.5469
     5 (A) A              24 (A) A                -0.5267
    ------------------------------------------------------
  ----------------------------------------------------------------------------


  Excited state  9 (A)                                             [converged]
  ----------------------------------------------------------------------------
  Term symbol:  10 (-) A                                    R^2 =  6.40157e-14

  Total energy:                                           -424.5721144264 a.u.
  Excitation energy:                                             308.083669 eV

  Osc. strength:                                                      0.120150
  Trans. dip. moment [a.u.]:           [   0.056748,    0.018965,    0.111078]
  <i|r^2|0> [a.u.]:                    [  -0.132613,    0.185524,   -0.040662]

  V1^2 = 0.9452, V2^2 = 0.0548

  Important amplitudes:
     core i     occ j      vir a      vir b          v   
    ------------------------------------------------------
     5 (A) A              25 (A) A                 0.5281
     5 (A) B              24 (A) B                -0.5279
    ------------------------------------------------------
  ----------------------------------------------------------------------------


  Excited state 10 (A)                                             [converged]
  ----------------------------------------------------------------------------
  Term symbol:  11 (-) A                                    R^2 =  1.45164e-13

  Total energy:                                           -424.3631309543 a.u.
  Excitation energy:                                             313.770399 eV

  Osc. strength:                                                      0.000000
  Trans. dip. moment [a.u.]:           [  -0.000029,   -0.000073,    0.000021]
  <i|r^2|0> [a.u.]:                    [   0.000090,   -0.000706,    0.000014]

  V1^2 = 0.9121, V2^2 = 0.0879

  Important amplitudes:
     core i     occ j      vir a      vir b          v   
    ------------------------------------------------------
     5 (A) B              26 (A) B                 0.5607
     5 (A) A              26 (A) A                -0.5420
    ------------------------------------------------------
  ----------------------------------------------------------------------------


  Excited state 11 (A)                                             [converged]
  ----------------------------------------------------------------------------
  Term symbol:  12 (-) A                                    R^2 =  1.81537e-13

  Total energy:                                           -424.3160694679 a.u.
  Excitation energy:                                             315.051007 eV

  Osc. strength:                                                      0.019685
  Trans. dip. moment [a.u.]:           [   0.016789,    0.044645,   -0.016593]
  <i|r^2|0> [a.u.]:                    [  -0.018908,    0.463423,    0.025659]

  V1^2 = 0.9139, V2^2 = 0.0861

  Important amplitudes:
     core i     occ j      vir a      vir b          v   
    ------------------------------------------------------
     5 (A) B              26 (A) B                -0.6063
     5 (A) A              26 (A) A                -0.5925
    ------------------------------------------------------
  ----------------------------------------------------------------------------


  Excited state 12 (A)                                             [converged]
  ----------------------------------------------------------------------------
  Term symbol:  13 (-) A                                    R^2 =  2.29011e-13

  Total energy:                                           -424.3080735800 a.u.
  Excitation energy:                                             315.268586 eV

  Osc. strength:                                                      0.003316
  Trans. dip. moment [a.u.]:           [   0.017132,   -0.009182,   -0.007172]
  <i|r^2|0> [a.u.]:                    [  -0.039281,   -0.091264,    0.003376]

  V1^2 = 0.8934, V2^2 = 0.1066

  Important amplitudes:
     core i     occ j      vir a      vir b          v   
    ------------------------------------------------------
     5 (A) A              27 (A) A                 0.6254
     5 (A) A              24 (A) A                -0.5741
    ------------------------------------------------------
  ----------------------------------------------------------------------------


  Excited state 13 (A)                                             [converged]
  ----------------------------------------------------------------------------
  Term symbol:  14 (-) A                                    R^2 =  1.27112e-13

  Total energy:                                           -424.3025575970 a.u.
  Excitation energy:                                             315.418684 eV

  Osc. strength:                                                      0.000096
  Trans. dip. moment [a.u.]:           [   0.001533,    0.000528,    0.003121]
  <i|r^2|0> [a.u.]:                    [  -0.003728,    0.004986,   -0.001429]

  V1^2 = 0.8933, V2^2 = 0.1067

  Important amplitudes:
     core i     occ j      vir a      vir b          v   
    ------------------------------------------------------
     5 (A) A              25 (A) A                -0.4908
     5 (A) A              28 (A) A                 0.4805
    ------------------------------------------------------
  ----------------------------------------------------------------------------


  Excited state 14 (A)                                             [converged]
  ----------------------------------------------------------------------------
  Term symbol:  15 (-) A                                    R^2 =  9.22867e-13

  Total energy:                                           -424.2909166431 a.u.
  Excitation energy:                                             315.735450 eV

  Osc. strength:                                                      0.023610
  Trans. dip. moment [a.u.]:           [  -0.045804,    0.024228,    0.019161]
  <i|r^2|0> [a.u.]:                    [   0.105035,    0.240472,   -0.009020]

  V1^2 = 0.8944, V2^2 = 0.1056

  Important amplitudes:
     core i     occ j      vir a      vir b          v   
    ------------------------------------------------------
     5 (A) B              27 (A) B                -0.6699
     5 (A) B              25 (A) B                 0.5206
    ------------------------------------------------------
  ----------------------------------------------------------------------------


  Excited state 15 (A)                                             [converged]
  ----------------------------------------------------------------------------
  Term symbol:  16 (-) A                                    R^2 =  1.98232e-13

  Total energy:                                           -424.2885090489 a.u.
  Excitation energy:                                             315.800964 eV

  Osc. strength:                                                      0.027994
  Trans. dip. moment [a.u.]:           [   0.027443,    0.010297,    0.052528]
  <i|r^2|0> [a.u.]:                    [  -0.063946,    0.100618,   -0.021513]

  V1^2 = 0.8967, V2^2 = 0.1033

  Important amplitudes:
     core i     occ j      vir a      vir b          v   
    ------------------------------------------------------
     5 (A) B              28 (A) B                 0.5410
     5 (A) A              28 (A) A                 0.4771
    ------------------------------------------------------
  ----------------------------------------------------------------------------


  Excited state 16 (A)                                             [converged]
  ----------------------------------------------------------------------------
  Term symbol:  17 (-) A                                    R^2 =  6.50477e-12

  Total energy:                                           -424.2326820935 a.u.
  Excitation energy:                                             317.320093 eV

  Osc. strength:                                                      0.000667
  Trans. dip. moment [a.u.]:           [  -0.002740,   -0.008079,    0.003598]
  <i|r^2|0> [a.u.]:                    [   0.008930,   -0.077097,    0.001255]

  V1^2 = 0.8944, V2^2 = 0.1056

  Important amplitudes:
     core i     occ j      vir a      vir b          v   
    ------------------------------------------------------
     5 (A) A              29 (A) A                -0.6676
     5 (A) B              29 (A) B                 0.4207
    ------------------------------------------------------
  ----------------------------------------------------------------------------


  Excited state 17 (A)                                             [converged]
  ----------------------------------------------------------------------------
  Term symbol:  18 (-) A                                    R^2 =  1.26205e-10

  Total energy:                                           -424.2139852557 a.u.
  Excitation energy:                                             317.828860 eV

  Osc. strength:                                                      0.011148
  Trans. dip. moment [a.u.]:           [  -0.011791,   -0.033249,    0.013680]
  <i|r^2|0> [a.u.]:                    [   0.036728,   -0.318202,    0.004441]

  V1^2 = 0.8954, V2^2 = 0.1046

  Important amplitudes:
     core i     occ j      vir a      vir b          v   
    ------------------------------------------------------
     5 (A) B              29 (A) B                -0.7290
     5 (A) A              29 (A) A                -0.4302
    ------------------------------------------------------
  ----------------------------------------------------------------------------


  Excited state 18 (A)                                         [not converged]
  ----------------------------------------------------------------------------
  Term symbol:  19 (-) A                                    R^2 =  1.32811e-06

  Total energy:                                           -423.7402481160 a.u.
  Excitation energy:                                             330.719903 eV


  V1^2 = 0.8851, V2^2 = 0.1149

  Important amplitudes:
     core i     occ j      vir a      vir b          v   
    ------------------------------------------------------
     5 (A) A              30 (A) A                 0.9157
     5 (A) A              36 (A) A                 0.1729
    ------------------------------------------------------
  ----------------------------------------------------------------------------


  Excited state 19 (A)                                         [not converged]
  ----------------------------------------------------------------------------
  Term symbol:  20 (-) A                                    R^2 =  4.96994e-06

  Total energy:                                           -423.7153197300 a.u.
  Excitation energy:                                             331.398239 eV


  V1^2 = 0.8866, V2^2 = 0.1134

  Important amplitudes:
     core i     occ j      vir a      vir b          v   
    ------------------------------------------------------
     5 (A) A              32 (A) A                 0.9111
     5 (A) A              40 (A) A                 0.1547
    ------------------------------------------------------
  ----------------------------------------------------------------------------


  Excited state 20 (A)                                         [not converged]
  ----------------------------------------------------------------------------
  Term symbol:  21 (-) A                                    R^2 =  8.40128e-06

  Total energy:                                           -423.7091383645 a.u.
  Excitation energy:                                             331.566442 eV


  V1^2 = 0.8870, V2^2 = 0.1130

  Important amplitudes:
     core i     occ j      vir a      vir b          v   
    ------------------------------------------------------
     5 (A) B              31 (A) B                -0.9115
     5 (A) B              39 (A) B                -0.1562
    ------------------------------------------------------
  ----------------------------------------------------------------------------


--------------------------------------------------------------------------------
  Time of ADC calculation:  CPU 1314.43 s  wall 1342.32 s
================================================================================
 
 --------------------------------------------------------------
 
                    Orbital Energies (a.u.)
 --------------------------------------------------------------
 
 Alpha MOs
 -- Occupied --
-26.772 -26.717 -26.716 -26.716 -11.938  -2.161  -2.048  -2.043
 -2.027  -1.315  -1.229  -1.225  -1.216  -1.186  -1.093  -1.053
 -1.052  -1.029  -1.026  -1.015  -1.000
 -- Virtual --
 -0.117   0.078   0.222   0.232   0.403   0.426   0.437   0.445
  0.943   0.963   0.976   1.022   1.024   1.068   1.265   1.275
  1.277   1.282   1.287   1.305   1.323   1.329   1.481   1.590
  1.600   1.616   1.697   1.707   1.784   1.790   1.795   1.961
  1.964   1.981   1.986   2.047   2.065   2.068   2.083   2.129
  2.479   2.693   2.706   2.740   3.018   3.032   3.279   3.284
  3.308   3.883   4.397   4.965   5.010   6.360
 
 Beta MOs
 -- Occupied --
-26.721 -26.718 -26.716 -26.716 -11.938  -2.156  -2.048  -2.043
 -1.840  -1.312  -1.225  -1.223  -1.202  -1.063  -1.052  -1.051
 -1.033  -0.999  -0.993  -0.984
 -- Virtual --
 -0.258  -0.113   0.082   0.232   0.237   0.405   0.431   0.437
  0.449   0.977   0.987   1.023   1.024   1.035   1.083   1.276
  1.281   1.283   1.288   1.289   1.323   1.342   1.410   1.487
  1.618   1.619   1.619   1.739   1.740   1.795   1.812   1.816
  1.961   1.964   2.001   2.006   2.065   2.075   2.091   2.098
  2.134   2.481   2.694   2.706   2.759   3.019   3.032   3.279
  3.285   3.309   3.910   4.399   4.966   5.011   6.362
 --------------------------------------------------------------
 
          Ground-State Mulliken Net Atomic Charges

     Atom                 Charge (a.u.)    Spin (a.u.)
  --------------------------------------------------------
      1 C                     1.324435      -0.013044
      2 F                    -0.145939       0.002531
      3 F                    -0.144956       0.002118
      4 F                     0.094198       1.011944
      5 F                    -0.127738      -0.003549
  --------------------------------------------------------
  Sum of atomic charges =     1.000000
  Sum of spin   charges =     1.000000

 -----------------------------------------------------------------
                    Cartesian Multipole Moments
 -----------------------------------------------------------------
    Charge (ESU x 10^10)
                 4.8032
    Dipole Moment (Debye)
         X      -3.3854      Y      11.3036      Z      -0.0696
       Tot      11.7998
    Quadrupole Moments (Debye-Ang)
        XX     -18.2774     XY      -7.3683     YY       7.5549
        XZ      -0.4771     YZ      -0.9107     ZZ     -21.0672
    Octopole Moments (Debye-Ang^2)
       XXX      41.0667    XXY     -44.7502    XYY      -2.6881
       YYY     -74.4382    XXZ       1.3736    XYZ      -0.4361
       YYZ      -3.3054    XZZ      13.8426    YZZ     -49.7979
       ZZZ       0.1655
    Hexadecapole Moments (Debye-Ang^3)
      XXXX    -125.6073   XXXY      98.5526   XXYY    -142.5765
      XYYY      59.8541   YYYY    -582.3628   XXXZ      -2.0018
      XXYZ       2.7085   XYYZ      -0.3680   YYYZ      -8.1335
      XXZZ     -31.9594   XYZZ      32.3683   YYZZ    -141.8608
      XZZZ       0.6283   YZZZ       2.3037   ZZZZ     -69.3719
 -----------------------------------------------------------------
Archival summary:
1\1\tp-linux1\SP\HF\6-31G*\41(1+,2)\thomas\WedMar2214:29:222017WedMar2214:29:222017\0\\#,HF,6-31G*,\\1,2\C\F,1,1.21269\F,1,1.22272,2,119.687\F,1,1.22331,2,119.646,3,165.183,0\F,1,1.73357,2,95.1562,3,-97.4485,0\\HF=-435.151152\\@

 Total job time:  1367.25s(wall), 1323.16s(cpu) 
 Wed Mar 22 14:29:22 2017

        *************************************************************
        *                                                           *
        *  Thank you very much for using Q-Chem.  Have a nice day.  *
        *                                                           *
        *************************************************************


0 sent ACK to 0 
now end server 0 ... 
cleanup process ... done
