
Running Job 1 of 1 ddtraj1t0.inp
qchem ddtraj1t0.inp_16994.0 /scratch/qchem/qchem16994/ 1
/mnt/software/qchem/bin/mpi/mpirun_qchem -machinefile /mnt/software/qchem/bin/mpi/machines -np 1 /mnt/software/qchem/exe/qcprog.exe ddtraj1t0.inp_16994.0 /scratch/qchem/qchem16994/

Process 0 of 1 is on tp-linux1 - thread support 0
initial socket setup ...start
initial socket setup ...done 
now start server 0 ... 

cmd = ssh tp-linux1 /mnt/software/qchem/bin/get_hostid 2112934862 > /scratch/qchem/qchem16994/lic.dat
                  Welcome to Q-Chem
     A Quantum Leap Into The Future Of Chemistry


 Q-Chem 4.3, Q-Chem, Inc., Pleasanton, CA (2015)

 Y. Shao,  Z. Gan,  E. Epifanovsky,  A. T. B. Gilbert,  M. Wormit,  
 J. Kussmann,  A. W. Lange,  A. Behn,  J. Deng,  X. Feng,  D. Ghosh,  
 M. Goldey,  P. R. Horn,  L. D. Jacobson,  I. Kaliman,  R. Z. Khaliullin,  
 T. Kus,  A. Landau,  J. Liu,  E. I. Proynov,  Y. M. Rhee,  R. M. Richard,  
 M. A. Rohrdanz,  R. P. Steele,  E. J. Sundstrom,  H. L. Woodcock III,  
 P. M. Zimmerman,  D. Zuev,  B. Albrecht,  E. Alguire,  B. Austin,  
 S. A. Baeppler,  G. J. O. Beran,  Y. A. Bernard,  E. Berquist,  
 K. Brandhorst,  K. B. Bravaya,  S. T. Brown,  D. Casanova,  C.-M. Chang,  
 Y. Chen,  S. H. Chien,  K. D. Closser,  D. L. Crittenden,  M. Diedenhofen,  
 R. A. DiStasio Jr.,  H. Do,  A. D. Dutoi,  R. G. Edgar,  P.-T. Fang,  
 S. Fatehi,  Q. Feng,  L. Fusti-Molnar,  A. Ghysels,  
 A. Golubeva-Zadorozhnaya,  J. Gomes,  A. Gunina,  M. W. D. Hanson-Heine,  
 P. H. P. Harbach,  A. W. Hauser,  E. G. Hohenstein,  Z. C. Holden,  K. Hui,  
 T.-C. Jagau,  H. Ji,  B. Kaduk,  K. Khistyaev,  Jaehoon Kim,  Jihan Kim,  
 R. A. King,  P. Klunzinger,  D. Kosenkov,  T. Kowalczyk,  C. M. Krauter,  
 K. U. Lao,  A. Laurent,  K. V. Lawler,  S. Lehtola,  S. V. Levchenko,  
 C. Y. Lin,  Y.-S. Lin,  F. Liu,  E. Livshits,  R. C. Lochan,  A. Luenser,  
 P. Manohar,  S. F. Manzer,  S.-P. Mao,  N. Mardirossian,  A. V. Marenich,  
 L. A. Martinez-Martinez,  S. A. Maurer,  N. J. Mayhall,  K. Nanda,  
 C. M. Oana,  R. Olivares-Amaya,  D. P. O'Neill,  J. A. Parkhill,  
 T. M. Perrine,  R. Peverati,  P. A. Pieniazek,  F. Plasser,  A. Prociuk,  
 D. R. Rehn,  E. Rosta,  N. J. Russ,  N. Sergueev,  S. M. Sharada,  
 S. Sharma,  D. W. Small,  A. Sodt,  T. Stauch,  T. Stein,  D. Stuck,  
 Y.-C. Su,  A. J. W. Thom,  T. Tsuchimochi,  L. Vogt,  O. Vydrov,  T. Wang,  
 M. A. Watson,  J. Wenzel,  A. White,  C. F. Williams,  V. Vanovschi,  
 S. Yeganeh,  S. R. Yost,  Z.-Q. You,  I. Y. Zhang,  X. Zhang,  Y. Zhao,  
 B. R. Brooks,  G. K. L. Chan,  D. M. Chipman,  C. J. Cramer,  
 W. A. Goddard III,  M. S. Gordon,  W. J. Hehre,  A. Klamt,  
 H. F. Schaefer III,  M. W. Schmidt,  C. D. Sherrill,  D. G. Truhlar,  
 A. Warshel,  X. Xu,  A. Aspuru-Guzik,  R. Baer,  A. T. Bell,  N. A. Besley,  
 J.-D. Chai,  A. Dreuw,  B. D. Dunietz,  T. R. Furlani,  S. R. Gwaltney,  
 C.-P. Hsu,  Y. Jung,  J. Kong,  D. S. Lambrecht,  W. Liang,  C. Ochsenfeld,  
 V. A. Rassolov,  L. V. Slipchenko,  J. E. Subotnik,  T. Van Voorhis,  
 J. M. Herbert,  A. I. Krylov,  P. M. W. Gill,  M. Head-Gordon

 Contributors to earlier versions of Q-Chem not listed above: 
 R. D. Adamson,  J. Baker,  E. F. C. Byrd,  A. K. Chakraborty,  C.-L. Cheng,  
 H. Dachsel,  R. J. Doerksen,  G. Hawkins,  A. Heyden,  S. Hirata,  
 G. Kedziora,  F. J. Keil,  C. Kelley,  P. P. Korambath,  W. Kurlancheek,  
 A. M. Lee,  M. S. Lee,  D. Liotard,  I. Lotan,  P. E. Maslen,  N. Nair,  
 D. Neuhauser,  R. Olson,  B. Peters,  J. Ritchie,  N. E. Schultz,  
 N. Shenvi,  A. C. Simmonett,  K. S. Thanthiriwatte,  Q. Wu,  W. Zhang

 Please cite Q-Chem as follows:
 Y. Shao et al., Mol. Phys. 113, 184-215 (2015)
 DOI: 10.1080/00268976.2014.952696

 Q-Chem 4.3.0 for Intel X86 Linux

 Parts of Q-Chem use Armadillo 5.200.1 (Boston Tea Smuggler).
 http://arma.sourceforge.net/

 Q-Chem begins on Tue Mar 21 15:20:01 2017  

Host: 
0

     Scratch files written to /scratch/qchem/qchem16994//
 Nov1815 1189b_ 19540  19532 5443   
 Parallel job on  1  processors
Processing $rem in /mnt/software/qchem/config/preferences.
 MEM_TOTAL  2000 

Checking the input file for inconsistencies... 	...done.

--------------------------------------------------------------
User input:
--------------------------------------------------------------
$comment
XAS calculation for valence excited states for CF4+ using cvs-adc(2) + 6-31G* basis set
job 1 - determination of HF orbitals
$end

$molecule
1 2
6  -0.69934  2.34967  0.0
9  0.60215  2.34967  -0.0
9  -1.13316  3.29245  0.78541
9  -1.13317  1.1981  0.42375
9  -1.13317  2.55847  -1.20916
$end

$comment
cvs-adc(2) calculation
$end

$rem
mem_total 3000
mem_static 1500
sym_ignore true
method cvs-adc(2)-x
basis 6-31G*
ee_singlets 20
cc_rest_occ 5                  !only excitations from the lowest N orbitals
unrestricted  true
max_scf_cycles 200
SCF_CONVERGENCE = 6
$end
--------------------------------------------------------------
 ----------------------------------------------------------------
             Standard Nuclear Orientation (Angstroms)
    I     Atom           X                Y                Z
 ----------------------------------------------------------------
    1      C      -0.6993400000     2.3496700000     0.0000000000
    2      F       0.6021500000     2.3496700000     0.0000000000
    3      F      -1.1331600000     3.2924500000     0.7854100000
    4      F      -1.1331700000     1.1981000000     0.4237500000
    5      F      -1.1331700000     2.5584700000    -1.2091600000
 ----------------------------------------------------------------
 Nuclear Repulsion Energy =   208.8311212848 hartrees
 There are       21 alpha and       20 beta electrons
 Requested basis set is 6-31G(d)
 There are 20 shells and 75 basis functions

 Total QAlloc Memory Limit   3000 MB
 Mega-Array Size      1467 MB
 MEM_STATIC part      1500 MB

                       Distance Matrix (Angstroms)
             C (  1)   F (  2)   F (  3)   F (  4)
   F (  2)  1.301490
   F (  3)  1.301500  2.125324
   F (  4)  1.301494  2.125327  2.125347
   F (  5)  1.301489  2.125324  2.125332  2.125324
 
 tim1(1): 
  0.000000000000000E+000
 tim1(2): 
  0.000000000000000E+000
 A cutoff of  1.0D-09 yielded    204 shell pairs
 There are      2979 function pairs
 
 -------------------------------------------------------
 OpenMP Integral Computing Module                       
 Release: version 1.0, May 2013, Q-Chem Inc. Pittsburgh 
 -------------------------------------------------------
 Integral Job Info:
 Integral job number is                      11
 Integral operator is                         1
 short-range coefficients                     0
 long-range coefficients              100000000
 Omega coefficients                           0
 if combine SR and LR in K                    0
 Integral screening is                        0
 Integral computing path is                   2
 max size of driver memory is            800000
 size of driver memory is                593474
 size of scratch memory is              2260544
 max col of scratch BK array               1296
 max len of scratch array in speh3          155
 max len of scratch index in speh4           18
 max int batch size is                      520
 min int batch size is                       52
 fixed nKL is                                52
 max L of basis functions is                  2
 order of int derivative is                   0
 number of shells is                         20
 number of basis is                          75
 number of cartesian basis is                75
 number of contracted shell pairs           204
 number of primitive shell pairs           1050
 maxK2 (contraction) of shell pair           36
 max number of K2 of shell pair               1
 max number of CS2 of shell pair             25
 max number of PS2 of shell pair            180
 mem total for path MDJ                   21832
 -------------------------------------------------------
 Smallest overlap matrix eigenvalue = 1.75E-03

 Scale SEOQF with 1.000000e+00/1.000000e-01/1.000000e+00

 Standard Electronic Orientation quadrupole field applied
 Nucleus-field energy     =     0.0000000108 hartrees
 Guess from superposition of atomic densities
 Warning:  Energy on first SCF cycle will be non-variational
 An unrestricted Hartree-Fock SCF calculation will be
 performed using Pulay DIIS extrapolation
 SCF converges when DIIS error is below 1.0E-06
 ---------------------------------------
  Cycle       Energy         DIIS Error
 ---------------------------------------
    1    -436.6440699925      8.95E-02
    2    -434.8131118562      1.82E-02
    3    -434.9800953143      8.16E-03
    4    -435.0150647200      2.04E-03
    5    -435.0198896518      8.12E-04
    6    -435.0268364179      1.24E-03
    7    -435.0247796917      1.24E-03
    8    -435.0137067452      5.42E-04
    9    -435.0139807890      6.14E-04
   10    -435.0144159432      5.92E-04
   11    -435.0121793846      4.04E-04
   12    -435.0107291380      1.97E-04
   13    -435.0109398678      2.19E-04
   14    -435.0111268302      2.32E-04
   15    -435.0104218992      1.16E-04
   16    -435.0102667394      1.04E-04
   17    -435.0104498392      1.32E-04
   18    -435.0104430866      1.05E-04
   19    -435.0105056123      7.74E-05
   20    -435.0106153190      4.69E-05
   21    -435.0107273966      3.82E-05
   22    -435.0108316965      3.26E-05
   23    -435.0109182960      3.26E-05
   24    -435.0109459455      1.98E-05
   25    -435.0109617218      1.86E-05
   26    -435.0109758076      3.08E-05
   27    -435.0109790546      1.68E-05
   28    -435.0109994378      1.13E-05
   29    -435.0110043064      7.28E-06
   30    -435.0110062438      7.47E-06
   31    -435.0110069802      5.94E-06
   32    -435.0110073603      3.17E-06
   33    -435.0110076265      3.28E-06
   34    -435.0110077541      2.69E-06
   35    -435.0110079545      1.69E-06
   36    -435.0110081256      1.76E-06
   37    -435.0110082688      1.28E-06
   38    -435.0110084061      1.09E-06
   39    -435.0110085041      8.08E-07 Convergence criterion met
 ---------------------------------------
 <S^2> = 0.7769
 SCF time:  CPU 5.60 s  wall 8.18 s
 SCF   energy in the final basis set = -435.0110085041
 Total energy in the final basis set = -435.0110085041
================================================================================
|                                                                              |
|                                 A D C  M A N                                 |
|                                                                              |
 ------------------------------------------------------------------------------ 
|                                                                              |
| Components:                                                                  |
|                                                                              |
| - libvmm - 1.2-release                                                       |
|   Authors:                                                                   |
|   Evgeny Epifanovsky, Ilya Kaliman                                           |
|                                                                              |
| - libtensor - 2.4-trunk                                                      |
|   Authors:                                                                   |
|   Evgeny Epifanovsky, Michael Wormit, Dmitry Zuev, Sam Manzer                |
|                                                                              |
| - libwfa - 1.1-beta                                                          |
|   Authors:                                                                   |
|   Felix Plasser, Stefanie Baeppler, Benjamin Thomitzni, Michael Wormit       |
|                                                                              |
| - libadc - 1.0-beta                                                          |
|   Authors:                                                                   |
|   Michael Wormit, Philipp H. P. Harbach, Caroline Krauter, Dirk Rehn,        |
|   Matthias Schneider, Jan Wenzel                                             |
|                                                                              |
| - adcman - 2.4-beta                                                          |
|   Authors:                                                                   |
|   Michael Wormit, Philipp H. P. Harbach, Caroline Krauter, Dirk Rehn,        |
|   Jan Wenzel, Andreas Dreuw                                                  |
|                                                                              |
| Authors of earlier versions of ADCMAN:                                       |
| Andreas Dreuw, Jan Hendrik Starcke, Dirk Rehn, Michael Wormit                |
|                                                                              |
================================================================================

 
 Alpha MOs, Unrestricted
 -- Occupied --                  
-26.764 -26.764 -26.763 -26.763 -11.947  -2.177  -2.049  -2.049
  1 A     2 A     3 A     4 A     5 A     6 A     7 A     8 A                  
 -2.048  -1.351  -1.245  -1.245  -1.237  -1.145  -1.112  -1.076
  9 A    10 A    11 A    12 A    13 A    14 A    15 A    16 A                  
 -1.076  -1.067  -1.057  -1.036  -1.036
 17 A    18 A    19 A    20 A    21 A                                          
 -- Virtual --                   
  0.106   0.106   0.111   0.117   0.376   0.376   0.377   0.378
 22 A    23 A    24 A    25 A    26 A    27 A    28 A    29 A                  
  0.943   0.961   1.005   1.005   1.006   1.109   1.251   1.261
 30 A    31 A    32 A    33 A    34 A    35 A    36 A    37 A                  
  1.282   1.296   1.296   1.342   1.342   1.352   1.488   1.488
 38 A    39 A    40 A    41 A    42 A    43 A    44 A    45 A                  
  1.492   1.760   1.763   1.763   1.786   1.787   1.906   1.908
 46 A    47 A    48 A    49 A    50 A    51 A    52 A    53 A                  
  1.908   1.972   1.972   1.977   2.048   2.058   2.058   2.273
 54 A    55 A    56 A    57 A    58 A    59 A    60 A    61 A                  
  2.603   2.603   2.609   2.829   2.839   3.054   3.097   3.097
 62 A    63 A    64 A    65 A    66 A    67 A    68 A    69 A                  
  3.098   4.388   4.420   4.420   4.424   6.000
 70 A    71 A    72 A    73 A    74 A    75 A                                  
 
 Beta MOs, Unrestricted
 -- Occupied --                  
-26.745 -26.745 -26.745 -26.745 -11.949  -2.139  -1.995  -1.994
  1 A     2 A     3 A     4 A     5 A     6 A     7 A     8 A                  
 -1.994  -1.332  -1.223  -1.203  -1.203  -1.096  -1.043  -1.024
  9 A    10 A    11 A    12 A    13 A    14 A    15 A    16 A                  
 -1.024  -0.943  -0.899  -0.899
 17 A    18 A    19 A    20 A                                                  
 -- Virtual --                   
 -0.596   0.114   0.125   0.130   0.130   0.375   0.377   0.379
 21 A    22 A    23 A    24 A    25 A    26 A    27 A    28 A                  
  0.379   0.967   1.011   1.015   1.017   1.017   1.114   1.260
 29 A    30 A    31 A    32 A    33 A    34 A    35 A    36 A                  
  1.265   1.315   1.315   1.342   1.355   1.368   1.368   1.501
 37 A    38 A    39 A    40 A    41 A    42 A    43 A    44 A                  
  1.501   1.508   1.782   1.782   1.783   1.806   1.811   1.916
 45 A    46 A    47 A    48 A    49 A    50 A    51 A    52 A                  
  1.919   1.919   1.983   1.988   1.988   2.070   2.070   2.077
 53 A    54 A    55 A    56 A    57 A    58 A    59 A    60 A                  
  2.280   2.613   2.617   2.617   2.838   2.838   3.064   3.104
 61 A    62 A    63 A    64 A    65 A    66 A    67 A    68 A                  
  3.104   3.104   4.387   4.430   4.430   4.432   6.005
 69 A    70 A    71 A    72 A    73 A    74 A    75 A                          
 

--------------------------------------------------------------------------------
                                   HF Summary                                   
--------------------------------------------------------------------------------
  Energy:                                                 -435.0110085041 a.u.
  Dip. moment [a.u.]:                  [ -54.183849,  182.049816,   -0.000050]
  Total dipole [Debye]:                                             482.784910
  <r^2> [a.u.]:                        [ 159.449858,  896.144146,   87.888257]
  Total <r^2> [a.u.]:                                              1143.482261
--------------------------------------------------------------------------------

--------------------------------------------------------------------------------
                                 MP(2) Summary                                  
--------------------------------------------------------------------------------
  Energy contribution:                                      -0.8602939058 a.u.
  Total energy:                                           -435.8713024099 a.u.
  Dip. moment [a.u.]:                  [ -54.183803,  182.049660,   -0.000000]
  Total dipole [Debye]:                                             482.784498
  <r^2> [a.u.]:                        [ 159.262722,  895.941001,   87.715640]
  Total <r^2> [a.u.]:                                              1142.919364
--------------------------------------------------------------------------------
  Starting Davidson ... 
--------------------------------------------------------------------------------
   It NVec Conv  Avg. Norm  Max. Norm  Conv. states           Remark
--------------------------------------------------------------------------------
        20    0  2.128e-01  1.100e+00 11.0989 n n n n n n n n Guess.
    1   40    0  1.272e-01  8.743e-01 10.5896 n n n n n n n n 
    2   60    0  8.342e-02  7.757e-01 10.5541 n n n n n n n n 
    3   80    0  6.578e-02  4.969e-01 10.5527 n n n n n n n n 
    4  100    0  6.153e-02  5.422e-01 10.5526 n n n n n n n n 
    5   40    0  3.906e-02  3.876e-01 10.5526 n n n n n n n n Subspace collapsed.
    6   60    0  3.231e-02  4.003e-01 10.5526 n n n n n n n n 
    7   80    0  1.962e-02  2.136e-01 10.5526 n n n n n n n n 
    8  100    0  1.588e-02  1.780e-01 10.5526 n n n n n n n n 
    9   40    0  8.963e-03  1.006e-01 10.5526 n n n n n n n n Subspace collapsed.
   10   60    0  1.129e-02  1.713e-01 10.5526 n n n n n n n n 
   11   80    1  1.242e-02  1.420e-01 10.5526 y n n n n n n n 
   12  100    1  1.141e-02  1.364e-01 10.5526 y n n n n n n n 
   13   40    1  5.822e-03  8.180e-02 10.5526 y n n n n n n n Subspace collapsed.
   14   60    1  5.933e-03  9.630e-02 10.5526 y n n n n n n n 
   15   80    1  3.328e-03  5.271e-02 10.5526 y n n n n n n n 
   16  100    1  2.670e-03  3.818e-02 10.5526 y n n n n n n n 
