
Running Job 1 of 1 ddtraj1t5.inp
qchem ddtraj1t5.inp_10366.0 /scratch/qchem/qchem10366/ 1
/mnt/software/qchem/bin/mpi/mpirun_qchem -machinefile /mnt/software/qchem/bin/mpi/machines -np 1 /mnt/software/qchem/exe/qcprog.exe ddtraj1t5.inp_10366.0 /scratch/qchem/qchem10366/

Process 0 of 1 is on tp-linux1 - thread support 0
initial socket setup ...start
initial socket setup ...done 
now start server 0 ... 

cmd = ssh tp-linux1 /mnt/software/qchem/bin/get_hostid 1121458349 > /scratch/qchem/qchem10366/lic.dat
                  Welcome to Q-Chem
     A Quantum Leap Into The Future Of Chemistry


 Q-Chem 4.3, Q-Chem, Inc., Pleasanton, CA (2015)

 Y. Shao,  Z. Gan,  E. Epifanovsky,  A. T. B. Gilbert,  M. Wormit,  
 J. Kussmann,  A. W. Lange,  A. Behn,  J. Deng,  X. Feng,  D. Ghosh,  
 M. Goldey,  P. R. Horn,  L. D. Jacobson,  I. Kaliman,  R. Z. Khaliullin,  
 T. Kus,  A. Landau,  J. Liu,  E. I. Proynov,  Y. M. Rhee,  R. M. Richard,  
 M. A. Rohrdanz,  R. P. Steele,  E. J. Sundstrom,  H. L. Woodcock III,  
 P. M. Zimmerman,  D. Zuev,  B. Albrecht,  E. Alguire,  B. Austin,  
 S. A. Baeppler,  G. J. O. Beran,  Y. A. Bernard,  E. Berquist,  
 K. Brandhorst,  K. B. Bravaya,  S. T. Brown,  D. Casanova,  C.-M. Chang,  
 Y. Chen,  S. H. Chien,  K. D. Closser,  D. L. Crittenden,  M. Diedenhofen,  
 R. A. DiStasio Jr.,  H. Do,  A. D. Dutoi,  R. G. Edgar,  P.-T. Fang,  
 S. Fatehi,  Q. Feng,  L. Fusti-Molnar,  A. Ghysels,  
 A. Golubeva-Zadorozhnaya,  J. Gomes,  A. Gunina,  M. W. D. Hanson-Heine,  
 P. H. P. Harbach,  A. W. Hauser,  E. G. Hohenstein,  Z. C. Holden,  K. Hui,  
 T.-C. Jagau,  H. Ji,  B. Kaduk,  K. Khistyaev,  Jaehoon Kim,  Jihan Kim,  
 R. A. King,  P. Klunzinger,  D. Kosenkov,  T. Kowalczyk,  C. M. Krauter,  
 K. U. Lao,  A. Laurent,  K. V. Lawler,  S. Lehtola,  S. V. Levchenko,  
 C. Y. Lin,  Y.-S. Lin,  F. Liu,  E. Livshits,  R. C. Lochan,  A. Luenser,  
 P. Manohar,  S. F. Manzer,  S.-P. Mao,  N. Mardirossian,  A. V. Marenich,  
 L. A. Martinez-Martinez,  S. A. Maurer,  N. J. Mayhall,  K. Nanda,  
 C. M. Oana,  R. Olivares-Amaya,  D. P. O'Neill,  J. A. Parkhill,  
 T. M. Perrine,  R. Peverati,  P. A. Pieniazek,  F. Plasser,  A. Prociuk,  
 D. R. Rehn,  E. Rosta,  N. J. Russ,  N. Sergueev,  S. M. Sharada,  
 S. Sharma,  D. W. Small,  A. Sodt,  T. Stauch,  T. Stein,  D. Stuck,  
 Y.-C. Su,  A. J. W. Thom,  T. Tsuchimochi,  L. Vogt,  O. Vydrov,  T. Wang,  
 M. A. Watson,  J. Wenzel,  A. White,  C. F. Williams,  V. Vanovschi,  
 S. Yeganeh,  S. R. Yost,  Z.-Q. You,  I. Y. Zhang,  X. Zhang,  Y. Zhao,  
 B. R. Brooks,  G. K. L. Chan,  D. M. Chipman,  C. J. Cramer,  
 W. A. Goddard III,  M. S. Gordon,  W. J. Hehre,  A. Klamt,  
 H. F. Schaefer III,  M. W. Schmidt,  C. D. Sherrill,  D. G. Truhlar,  
 A. Warshel,  X. Xu,  A. Aspuru-Guzik,  R. Baer,  A. T. Bell,  N. A. Besley,  
 J.-D. Chai,  A. Dreuw,  B. D. Dunietz,  T. R. Furlani,  S. R. Gwaltney,  
 C.-P. Hsu,  Y. Jung,  J. Kong,  D. S. Lambrecht,  W. Liang,  C. Ochsenfeld,  
 V. A. Rassolov,  L. V. Slipchenko,  J. E. Subotnik,  T. Van Voorhis,  
 J. M. Herbert,  A. I. Krylov,  P. M. W. Gill,  M. Head-Gordon

 Contributors to earlier versions of Q-Chem not listed above: 
 R. D. Adamson,  J. Baker,  E. F. C. Byrd,  A. K. Chakraborty,  C.-L. Cheng,  
 H. Dachsel,  R. J. Doerksen,  G. Hawkins,  A. Heyden,  S. Hirata,  
 G. Kedziora,  F. J. Keil,  C. Kelley,  P. P. Korambath,  W. Kurlancheek,  
 A. M. Lee,  M. S. Lee,  D. Liotard,  I. Lotan,  P. E. Maslen,  N. Nair,  
 D. Neuhauser,  R. Olson,  B. Peters,  J. Ritchie,  N. E. Schultz,  
 N. Shenvi,  A. C. Simmonett,  K. S. Thanthiriwatte,  Q. Wu,  W. Zhang

 Please cite Q-Chem as follows:
 Y. Shao et al., Mol. Phys. 113, 184-215 (2015)
 DOI: 10.1080/00268976.2014.952696

 Q-Chem 4.3.0 for Intel X86 Linux

 Parts of Q-Chem use Armadillo 5.200.1 (Boston Tea Smuggler).
 http://arma.sourceforge.net/

 Q-Chem begins on Wed Mar 22 12:37:47 2017  

Host: 
0

     Scratch files written to /scratch/qchem/qchem10366//
 Nov1815 1189b_ 19540  19532 5443   
 Parallel job on  1  processors
Processing $rem in /mnt/software/qchem/config/preferences.
 MEM_TOTAL  2000 

Checking the input file for inconsistencies... 	...done.

--------------------------------------------------------------
User input:
--------------------------------------------------------------
$comment
XAS calculation for valence excited states for CF4+ using cvs-adc(2) + 6-31G* basis set
job 1 - determination of HF orbitals
$end

$molecule
1 2
6  -0.661811  2.455398  -0.043473
9  0.592893  2.340184  0.003048
9  -1.135057  3.279079  0.785074
9  -1.145605  1.16142  0.440028
9  -1.133286  2.551227  -1.200691
$end

$comment
cvs-adc(2) calculation
$end

$rem
mem_total 3000
mem_static 1500
sym_ignore true
method cvs-adc(2)
basis 6-31G*
ee_singlets 20
cc_rest_occ 5                  !only excitations from the lowest N orbitals
unrestricted  true
max_scf_cycles 200
SCF_ALGORITHM = DIIS_GDM
SCF_CONVERGENCE = 7
THRESH = 10
$end
--------------------------------------------------------------
 ----------------------------------------------------------------
             Standard Nuclear Orientation (Angstroms)
    I     Atom           X                Y                Z
 ----------------------------------------------------------------
    1      C      -0.6618110000     2.4553980000    -0.0434730000
    2      F       0.5928930000     2.3401840000     0.0030480000
    3      F      -1.1350570000     3.2790790000     0.7850740000
    4      F      -1.1456050000     1.1614200000     0.4400280000
    5      F      -1.1332860000     2.5512270000    -1.2006910000
 ----------------------------------------------------------------
 Nuclear Repulsion Energy =   208.3355048472 hartrees
 There are       21 alpha and       20 beta electrons
 Requested basis set is 6-31G(d)
 There are 20 shells and 75 basis functions

 Total QAlloc Memory Limit   3000 MB
 Mega-Array Size      1467 MB
 MEM_STATIC part      1500 MB

                       Distance Matrix (Angstroms)
             C (  1)   F (  2)   F (  3)   F (  4)
   F (  2)  1.260841
   F (  3)  1.260517  2.116341
   F (  4)  1.463629  2.145416  2.145611
   F (  5)  1.253246  2.114999  2.114955  2.150273
 
 tim1(1): 
  0.000000000000000E+000
 tim1(2): 
  0.000000000000000E+000
 A cutoff of  1.0D-10 yielded    204 shell pairs
 There are      2979 function pairs
 
 -------------------------------------------------------
 OpenMP Integral Computing Module                       
 Release: version 1.0, May 2013, Q-Chem Inc. Pittsburgh 
 -------------------------------------------------------
 Integral Job Info:
 Integral job number is                      11
 Integral operator is                         1
 short-range coefficients                     0
 long-range coefficients              100000000
 Omega coefficients                           0
 if combine SR and LR in K                    0
 Integral screening is                        0
 Integral computing path is                   2
 max size of driver memory is            800000
 size of driver memory is                593474
 size of scratch memory is              2260544
 max col of scratch BK array               1296
 max len of scratch array in speh3          155
 max len of scratch index in speh4           18
 max int batch size is                      520
 min int batch size is                       52
 fixed nKL is                                52
 max L of basis functions is                  2
 order of int derivative is                   0
 number of shells is                         20
 number of basis is                          75
 number of cartesian basis is                75
 number of contracted shell pairs           204
 number of primitive shell pairs           1068
 maxK2 (contraction) of shell pair           36
 max number of K2 of shell pair               1
 max number of CS2 of shell pair             37
 max number of PS2 of shell pair            222
 mem total for path MDJ                   21832
 -------------------------------------------------------
 Smallest overlap matrix eigenvalue = 1.73E-03

 Scale SEOQF with 1.000000e+00/1.000000e-01/1.000000e+00

 Standard Electronic Orientation quadrupole field applied
 Nucleus-field energy     =     0.0000000109 hartrees
 Guess from superposition of atomic densities
 Warning:  Energy on first SCF cycle will be non-variational
 An unrestricted Hartree-Fock SCF calculation will be
 performed using Pulay DIIS + Geometric Direct Minimization
 SCF converges when RMS gradient is below 1.0E-07
 ---------------------------------------
  Cycle       Energy         DIIS Error
 ---------------------------------------
    1    -436.6443245681      9.07E-02
    2    -434.8563394634      1.87E-02
    3    -435.0570104278      8.18E-03 Done DIIS. Switching to GDM
    4    -435.1042133639      6.89E-02 Normal BFGS step
    5    -435.1155782819      5.23E-02 Normal BFGS step
    6    -435.1195601781      1.27E-02 Normal BFGS step
    7    -435.1200962709      3.79E-03 Normal BFGS step
    8    -435.1201772172      1.72E-03 Normal BFGS step
    9    -435.1202117975      1.29E-03 Normal BFGS step
   10    -435.1202211778      1.13E-03 Normal BFGS step
   11    -435.1202368572      7.68E-04 Normal BFGS step
   12    -435.1202429258      5.42E-04 Normal BFGS step
   13    -435.1202462878      2.67E-04 Normal BFGS step
   14    -435.1202470445      1.45E-04 Normal BFGS step
   15    -435.1202472071      1.05E-04 Normal BFGS step
   16    -435.1202472563      1.04E-04 Normal BFGS step
   17    -435.1202473119      1.05E-04 Normal BFGS step
   18    -435.1202474163      1.05E-04 Normal BFGS step
   19    -435.1202476689      1.27E-04 Normal BFGS step
   20    -435.1202483057      2.29E-04 Normal BFGS step
   21    -435.1202499796      3.91E-04 Normal BFGS step
   22    -435.1202543639      6.54E-04 Normal BFGS step
   23    -435.1202612472      1.01E-03 Normal BFGS step
   24    -435.1202731868      7.99E-04 Line search: understep
   25    -435.1203124423      3.07E-03 Normal BFGS step
   26    -435.1201025239      3.16E-03 Line search: overstep
   27    -435.1203377184      9.71E-04 Normal BFGS step
   28    -435.1203516594      6.36E-04 Normal BFGS step
   29    -435.1203781567      1.37E-03 Normal BFGS step
   30    -435.1203996846      1.50E-03 Normal BFGS step
   31    -435.1204230454      6.77E-04 Normal BFGS step
   32    -435.1203627972      4.43E-03 Line search: overstep
   33    -435.1204271409      6.79E-04 Normal BFGS step
   34    -435.1204366680      1.08E-03 Normal BFGS step
   35    -435.1204434730      5.72E-04 Normal BFGS step
   36    -435.1204482075      5.50E-04 Normal BFGS step
   37    -435.1204537698      1.96E-04 Normal BFGS step
   38    -435.1204556562      5.53E-04 Normal BFGS step
   39    -435.1204576581      1.54E-04 Normal BFGS step
   40    -435.1204583277      1.13E-04 Normal BFGS step
   41    -435.1204586097      7.96E-05 Normal BFGS step
   42    -435.1204586737      6.66E-05 Normal BFGS step
   43    -435.1204587112      5.07E-05 Normal BFGS step
   44    -435.1204587349      3.30E-05 Normal BFGS step
   45    -435.1204587493      2.39E-05 Normal BFGS step
   46    -435.1204587578      1.07E-05 Normal BFGS step
   47    -435.1204587613      5.20E-06 Normal BFGS step
   48    -435.1204587623      4.46E-06 Normal BFGS step
   49    -435.1204587626      1.38E-06 Normal BFGS step
   50    -435.1204587626      5.42E-07 Normal BFGS step
   51    -435.1204587626      1.80E-07 Normal BFGS step
   52    -435.1204587626      7.54E-08 Convergence criterion met
 ---------------------------------------
 <S^2> = 0.7547
 SCF time:  CPU 7.60 s  wall 10.73 s
 SCF   energy in the final basis set = -435.1204587626
 Total energy in the final basis set = -435.1204587626
================================================================================
|                                                                              |
|                                 A D C  M A N                                 |
|                                                                              |
 ------------------------------------------------------------------------------ 
|                                                                              |
| Components:                                                                  |
|                                                                              |
| - libvmm - 1.2-release                                                       |
|   Authors:                                                                   |
|   Evgeny Epifanovsky, Ilya Kaliman                                           |
|                                                                              |
| - libtensor - 2.4-trunk                                                      |
|   Authors:                                                                   |
|   Evgeny Epifanovsky, Michael Wormit, Dmitry Zuev, Sam Manzer                |
|                                                                              |
| - libwfa - 1.1-beta                                                          |
|   Authors:                                                                   |
|   Felix Plasser, Stefanie Baeppler, Benjamin Thomitzni, Michael Wormit       |
|                                                                              |
| - libadc - 1.0-beta                                                          |
|   Authors:                                                                   |
|   Michael Wormit, Philipp H. P. Harbach, Caroline Krauter, Dirk Rehn,        |
|   Matthias Schneider, Jan Wenzel                                             |
|                                                                              |
| - adcman - 2.4-beta                                                          |
|   Authors:                                                                   |
|   Michael Wormit, Philipp H. P. Harbach, Caroline Krauter, Dirk Rehn,        |
|   Jan Wenzel, Andreas Dreuw                                                  |
|                                                                              |
| Authors of earlier versions of ADCMAN:                                       |
| Andreas Dreuw, Jan Hendrik Starcke, Dirk Rehn, Michael Wormit                |
|                                                                              |
================================================================================

 
 Alpha MOs, Unrestricted
 -- Occupied --                  
-26.921 -26.685 -26.684 -26.679 -11.931  -2.215  -2.084  -1.999
  1 A     2 A     3 A     4 A     5 A     6 A     7 A     8 A                  
 -1.997  -1.361  -1.333  -1.240  -1.237  -1.173  -1.158  -1.043
  9 A    10 A    11 A    12 A    13 A    14 A    15 A    16 A                  
 -1.026  -1.025  -0.993  -0.989  -0.967
 17 A    18 A    19 A    20 A    21 A                                          
 -- Virtual --                   
 -0.037   0.144   0.167   0.180   0.352   0.403   0.412   0.429
 22 A    23 A    24 A    25 A    26 A    27 A    28 A    29 A                  
  0.917   0.949   0.953   1.040   1.040   1.104   1.199   1.238
 30 A    31 A    32 A    33 A    34 A    35 A    36 A    37 A                  
  1.294   1.299   1.346   1.348   1.350   1.392   1.418   1.514
 38 A    39 A    40 A    41 A    42 A    43 A    44 A    45 A                  
  1.519   1.714   1.721   1.778   1.812   1.816   1.816   1.942
 46 A    47 A    48 A    49 A    50 A    51 A    52 A    53 A                  
  1.957   1.986   1.995   2.006   2.037   2.048   2.101   2.256
 54 A    55 A    56 A    57 A    58 A    59 A    60 A    61 A                  
  2.450   2.660   2.683   2.904   2.905   2.924   3.174   3.175
 62 A    63 A    64 A    65 A    66 A    67 A    68 A    69 A                  
  3.228   4.085   4.405   4.638   4.665   6.024
 70 A    71 A    72 A    73 A    74 A    75 A                                  
 
 Beta MOs, Unrestricted
 -- Occupied --                  
-26.868 -26.684 -26.683 -26.679 -11.932  -2.128  -1.997  -1.995
  1 A     2 A     3 A     4 A     5 A     6 A     7 A     8 A                  
 -1.982  -1.331  -1.224  -1.210  -1.182  -1.134  -1.026  -1.024
  9 A    10 A    11 A    12 A    13 A    14 A    15 A    16 A                  
 -1.018  -0.993  -0.987  -0.966
 17 A    18 A    19 A    20 A                                                  
 -- Virtual --                   
 -0.382  -0.021   0.146   0.181   0.194   0.359   0.410   0.413
 21 A    22 A    23 A    24 A    25 A    26 A    27 A    28 A                  
  0.429   0.960   0.974   1.005   1.041   1.042   1.110   1.247
 29 A    30 A    31 A    32 A    33 A    34 A    35 A    36 A                  
  1.276   1.303   1.332   1.346   1.349   1.356   1.407   1.421
 37 A    38 A    39 A    40 A    41 A    42 A    43 A    44 A                  
  1.554   1.558   1.751   1.752   1.790   1.813   1.820   1.820
 45 A    46 A    47 A    48 A    49 A    50 A    51 A    52 A                  
  1.967   1.968   1.997   2.001   2.015   2.052   2.065   2.101
 53 A    54 A    55 A    56 A    57 A    58 A    59 A    60 A                  
  2.263   2.462   2.669   2.684   2.906   2.908   2.939   3.175
 61 A    62 A    63 A    64 A    65 A    66 A    67 A    68 A                  
  3.176   3.230   4.106   4.408   4.640   4.666   6.028
 69 A    70 A    71 A    72 A    73 A    74 A    75 A                          
 

--------------------------------------------------------------------------------
                                   HF Summary                                   
--------------------------------------------------------------------------------
  Energy:                                                 -435.1204587626 a.u.
  Dip. moment [a.u.]:                  [ -53.849564,  182.938525,   -0.327720]
  Total dipole [Debye]:                                             484.710455
  <r^2> [a.u.]:                        [ 158.682511,  904.710314,   88.457334]
  Total <r^2> [a.u.]:                                              1151.850159
--------------------------------------------------------------------------------

--------------------------------------------------------------------------------
                                 MP(2) Summary                                  
--------------------------------------------------------------------------------
  Energy contribution:                                      -0.7492400945 a.u.
  Total energy:                                           -435.8696988571 a.u.
  Dip. moment [a.u.]:                  [ -53.886216,  182.858451,   -0.310714]
  Total dipole [Debye]:                                             484.541468
  <r^2> [a.u.]:                        [ 158.590708,  904.019070,   88.294762]
  Total <r^2> [a.u.]:                                              1150.904540
--------------------------------------------------------------------------------
  Starting Davidson ... 
--------------------------------------------------------------------------------
   It NVec Conv  Avg. Norm  Max. Norm  Conv. states           Remark
--------------------------------------------------------------------------------
        20    0  2.113e-01  1.135e+00 11.0798 n n n n n n n n Guess.
    1   40    0  3.700e-02  4.444e-01 10.7893 n n n n n n n n 
    2   60    0  7.074e-03  7.794e-02 10.7842 n n n n n n n n 
    3   80    0  2.198e-03  2.268e-02 10.7837 n n n n n n n n 
    4  100    0  1.282e-03  1.943e-02 10.7837 n n n n n n n n 
    5   40    0  8.719e-04  1.125e-02 10.7837 n n n n n n n n Subspace collapsed.
    6   60    0  7.268e-04  1.104e-02 10.7837 n n n n n n n n 
    7   80    0  5.349e-04  9.372e-03 10.7837 n n n n n n n n 
    8  100    2  2.406e-04  4.083e-03 10.7837 n y y n n n n n 
    9   40    6  1.120e-04  1.803e-03 10.7837 y y y y n n n y Subspace collapsed.
   10   60    6  6.304e-05  9.781e-04 10.7837 y y y y n n n y 
   11   80    9  3.565e-05  5.000e-04 10.7837 y y y y y y y y 
   12  100   13  3.183e-05  4.337e-04 10.7837 y y y y y y y y 
   13   40   17  1.667e-05  2.240e-04 10.7837 y y y y y y y y Subspace collapsed.
   14   60   17  1.749e-05  2.349e-04 10.7837 y y y y y y y y 
   15   80   17  1.250e-05  1.737e-04 10.7837 y y y y y y y y 
   16  100   17  1.181e-05  2.046e-04 10.7837 y y y y y y y y 
   17   38   17  4.874e-06  7.984e-05 10.7837 y y y y y y y y Subspace collapsed.
   18   55   17  4.825e-06  8.981e-05 10.7837 y y y y y y y y 
   19   59   17  4.671e-06  8.678e-05 10.7837 y y y y y y y y 
   20   74   17  2.719e-06  5.074e-05 10.7837 y y y y y y y y 
   21   88   17  3.279e-06  6.271e-05 10.7837 y y y y y y y y 
   22   89   17  3.277e-06  6.274e-05 10.7837 y y y y y y y y 
   23  100   17  3.223e-06  5.714e-05 10.7837 y y y y y y y y 
   24   31   17  1.459e-06  2.560e-05 10.7837 y y y y y y y y Subspace collapsed.
   25   42   17  8.650e-07  1.451e-05 10.7837 y y y y y y y y 
   26   53   17  7.857e-07  1.293e-05 10.7837 y y y y y y y y 
   27   53   17  7.857e-07  1.293e-05 10.7837 y y y y y y y y 
   28   73   17  6.265e-07  9.765e-06 10.7837 y y y y y y y y 
   29   83   17  8.379e-07  1.246e-05 10.7837 y y y y y y y y 
   30   87   17  8.293e-07  1.240e-05 10.7837 y y y y y y y y 
   31   87   17  8.293e-07  1.240e-05 10.7837 y y y y y y y y 
   32   90   17  8.285e-07  1.244e-05 10.7837 y y y y y y y y 
   33   90   17  8.285e-07  1.244e-05 10.7837 y y y y y y y y 
   34   92   17  8.330e-07  1.254e-05 10.7837 y y y y y y y y 
   35   92   17  8.330e-07  1.254e-05 10.7837 y y y y y y y y 
   36   92   17  8.330e-07  1.254e-05 10.7837 y y y y y y y y 
   37  100   17  8.578e-07  1.302e-05 10.7837 y y y y y y y y 
   38   20   17  8.578e-07  1.302e-05 10.7837 y y y y y y y y Subspace collapsed.
   39   21   17  8.578e-07  1.302e-05 10.7837 y y y y y y y y 
   40   22   17  8.512e-07  1.291e-05 10.7837 y y y y y y y y 
   41   23   17  8.510e-07  1.291e-05 10.7837 y y y y y y y y 
   42   23   17  8.510e-07  1.291e-05 10.7837 y y y y y y y y 
   43   25   17  8.507e-07  1.291e-05 10.7837 y y y y y y y y 
   44   28   17  8.421e-07  1.277e-05 10.7837 y y y y y y y y 
   45   31   17  8.079e-07  1.226e-05 10.7837 y y y y y y y y 
   46   32   17  8.042e-07  1.221e-05 10.7837 y y y y y y y y 
   47   33   17  8.047e-07  1.221e-05 10.7837 y y y y y y y y 
   48   33   17  8.047e-07  1.221e-05 10.7837 y y y y y y y y 
   49   36   17  8.077e-07  1.226e-05 10.7837 y y y y y y y y 
   50   36   17  8.077e-07  1.226e-05 10.7837 y y y y y y y y 
   51   39   17  7.973e-07  1.211e-05 10.7837 y y y y y y y y 
   52   39   17  7.973e-07  1.211e-05 10.7837 y y y y y y y y 
   53   39   17  7.973e-07  1.211e-05 10.7837 y y y y y y y y 
   54   59   18  4.366e-07  6.772e-06 10.7837 y y y y y y y y 
   55   59   18  4.366e-07  6.772e-06 10.7837 y y y y y y y y 
   56   60   18  4.382e-07  6.802e-06 10.7837 y y y y y y y y 
   57   61   18  4.385e-07  6.804e-06 10.7837 y y y y y y y y 
   58   62   18  4.385e-07  6.805e-06 10.7837 y y y y y y y y 
   59   62   18  4.385e-07  6.805e-06 10.7837 y y y y y y y y 
--------------------------------------------------------------------------------
  Davidson Summary: 
 ------------------------------------------------------------
  State  0: excitation energy =  10.7837 a.u.   (converged)
  State  1: excitation energy =  10.9038 a.u.   (converged)
  State  2: excitation energy =  10.9964 a.u.   (converged)
  State  3: excitation energy =  11.1614 a.u.   (converged)
  State  4: excitation energy =  11.1677 a.u.   (converged)
  State  5: excitation energy =  11.2046 a.u.   (converged)
  State  6: excitation energy =  11.2382 a.u.   (converged)
  State  7: excitation energy =  11.2442 a.u.   (converged)
  State  8: excitation energy =  11.2889 a.u.   (converged)
  State  9: excitation energy =  11.5623 a.u.   (converged)
  State 10: excitation energy =  11.5683 a.u.   (converged)
  State 11: excitation energy =  11.5751 a.u.   (converged)
  State 12: excitation energy =  11.5797 a.u.   (converged)
  State 13: excitation energy =  11.5899 a.u.   (converged)
  State 14: excitation energy =  11.5901 a.u.   (converged)
  State 15: excitation energy =  11.5947 a.u.   (converged)
  State 16: excitation energy =  11.5965 a.u.   (converged)
  State 17: excitation energy =  12.1051 a.u.   (not converged)
  State 18: excitation energy =  12.1300 a.u.   (converged)
  State 19: excitation energy =  12.1380 a.u.   (not converged)
 ------------------------------------------------------------


--------------------------------------------------------------------------------
                             Excited State Summary
--------------------------------------------------------------------------------

  Excited state  1 (A)                                             [converged]
  ----------------------------------------------------------------------------
  Term symbol:  2 (-) A                                     R^2 =  2.43015e-12

  Total energy:                                           -425.0859889764 a.u.
  Excitation energy:                                             293.439669 eV

  Osc. strength:                                                      0.000009
  Trans. dip. moment [a.u.]:           [  -0.000906,    0.000513,    0.000378]
  <i|r^2|0> [a.u.]:                    [   0.003686,    0.003499,   -0.000220]

  V1^2 = 0.8628, V2^2 = 0.1372

  Important amplitudes:
     core i     occ j      vir a      vir b          v   
    ------------------------------------------------------
     5 (A) B              21 (A) B                -0.9263
     5 (A) B   10 (A) A   22 (A) A   21 (A) B     -0.0737
    ------------------------------------------------------
  ----------------------------------------------------------------------------


  Excited state  2 (A)                                             [converged]
  ----------------------------------------------------------------------------
  Term symbol:  3 (-) A                                     R^2 =  1.09348e-11

  Total energy:                                           -424.9658594348 a.u.
  Excitation energy:                                             296.708561 eV

  Osc. strength:                                                      0.001402
  Trans. dip. moment [a.u.]:           [   0.004557,    0.012273,   -0.004639]
  <i|r^2|0> [a.u.]:                    [  -0.012658,    0.112589,   -0.000501]

  V1^2 = 0.9614, V2^2 = 0.0386

  Important amplitudes:
     core i     occ j      vir a      vir b          v   
    ------------------------------------------------------
     5 (A) A              22 (A) A                 0.7309
     5 (A) B              22 (A) B                -0.5894
    ------------------------------------------------------
  ----------------------------------------------------------------------------


  Excited state  3 (A)                                             [converged]
  ----------------------------------------------------------------------------
  Term symbol:  4 (-) A                                     R^2 =  8.04984e-12

  Total energy:                                           -424.8733087114 a.u.
  Excitation energy:                                             299.226994 eV

  Osc. strength:                                                      0.122294
  Trans. dip. moment [a.u.]:           [   0.043414,    0.114368,   -0.041439]
  <i|r^2|0> [a.u.]:                    [  -0.118981,    1.053080,   -0.003516]

  V1^2 = 0.9570, V2^2 = 0.0430

  Important amplitudes:
     core i     occ j      vir a      vir b          v   
    ------------------------------------------------------
     5 (A) B              22 (A) B                 0.7364
     5 (A) A              22 (A) A                 0.5953
    ------------------------------------------------------
  ----------------------------------------------------------------------------


  Excited state  4 (A)                                             [converged]
  ----------------------------------------------------------------------------
  Term symbol:  5 (-) A                                     R^2 =  4.25301e-10

  Total energy:                                           -424.7082783425 a.u.
  Excitation energy:                                             303.717698 eV

  Osc. strength:                                                      0.000333
  Trans. dip. moment [a.u.]:           [  -0.005555,    0.002899,    0.002346]
  <i|r^2|0> [a.u.]:                    [   0.014385,    0.026568,   -0.000565]

  V1^2 = 0.9531, V2^2 = 0.0469

  Important amplitudes:
     core i     occ j      vir a      vir b          v   
    ------------------------------------------------------
     5 (A) A              24 (A) A                -0.5976
     5 (A) B              25 (A) B                 0.5438
    ------------------------------------------------------
  ----------------------------------------------------------------------------


  Excited state  5 (A)                                             [converged]
  ----------------------------------------------------------------------------
  Term symbol:  6 (-) A                                     R^2 =  2.36988e-12

  Total energy:                                           -424.7019736669 a.u.
  Excitation energy:                                             303.889257 eV

  Osc. strength:                                                      0.000006
  Trans. dip. moment [a.u.]:           [   0.000453,    0.000712,    0.000190]
  <i|r^2|0> [a.u.]:                    [  -0.001072,    0.006721,    0.000055]

  V1^2 = 0.9535, V2^2 = 0.0465

  Important amplitudes:
     core i     occ j      vir a      vir b          v   
    ------------------------------------------------------
     5 (A) A              25 (A) A                 0.5614
     5 (A) B              24 (A) B                 0.5597
    ------------------------------------------------------
  ----------------------------------------------------------------------------


  Excited state  6 (A)                                             [converged]
  ----------------------------------------------------------------------------
  Term symbol:  7 (-) A                                     R^2 =  1.02164e-11

  Total energy:                                           -424.6651253674 a.u.
  Excitation energy:                                             304.891951 eV

  Osc. strength:                                                      0.000060
  Trans. dip. moment [a.u.]:           [   0.001461,    0.002397,    0.000387]
  <i|r^2|0> [a.u.]:                    [  -0.003399,    0.022744,    0.000297]

  V1^2 = 0.9338, V2^2 = 0.0662

  Important amplitudes:
     core i     occ j      vir a      vir b          v   
    ------------------------------------------------------
     5 (A) A              23 (A) A                 0.5996
     5 (A) B              23 (A) B                -0.5726
    ------------------------------------------------------
  ----------------------------------------------------------------------------


  Excited state  7 (A)                                             [converged]
  ----------------------------------------------------------------------------
  Term symbol:  8 (-) A                                     R^2 =  2.35842e-10

  Total energy:                                           -424.6315073768 a.u.
  Excitation energy:                                             305.806743 eV

  Osc. strength:                                                      0.116943
  Trans. dip. moment [a.u.]:           [   0.103318,   -0.054947,   -0.043760]
  <i|r^2|0> [a.u.]:                    [  -0.265746,   -0.505731,    0.010678]

  V1^2 = 0.9448, V2^2 = 0.0552

  Important amplitudes:
     core i     occ j      vir a      vir b          v   
    ------------------------------------------------------
     5 (A) B              25 (A) B                 0.6385
     5 (A) A              24 (A) A                 0.5653
    ------------------------------------------------------
  ----------------------------------------------------------------------------


  Excited state  8 (A)                                             [converged]
  ----------------------------------------------------------------------------
  Term symbol:  9 (-) A                                     R^2 =  1.51356e-11

  Total energy:                                           -424.6255174060 a.u.
  Excitation energy:                                             305.969738 eV

  Osc. strength:                                                      0.116275
  Trans. dip. moment [a.u.]:           [  -0.056840,   -0.020167,   -0.108967]
  <i|r^2|0> [a.u.]:                    [   0.144461,   -0.187049,    0.009508]

  V1^2 = 0.9455, V2^2 = 0.0545

  Important amplitudes:
     core i     occ j      vir a      vir b          v   
    ------------------------------------------------------
     5 (A) B              24 (A) B                 0.5976
     5 (A) A              25 (A) A                -0.5922
    ------------------------------------------------------
  ----------------------------------------------------------------------------


  Excited state  9 (A)                                             [converged]
  ----------------------------------------------------------------------------
  Term symbol:  10 (-) A                                    R^2 =  6.46622e-12

  Total energy:                                           -424.5807961817 a.u.
  Excitation energy:                                             307.186665 eV

  Osc. strength:                                                      0.007601
  Trans. dip. moment [a.u.]:           [   0.006193,    0.026153,   -0.016961]
  <i|r^2|0> [a.u.]:                    [   0.006437,    0.270684,    0.023582]

  V1^2 = 0.9181, V2^2 = 0.0819

  Important amplitudes:
     core i     occ j      vir a      vir b          v   
    ------------------------------------------------------
     5 (A) B              23 (A) B                 0.6418
     5 (A) A              23 (A) A                 0.6153
    ------------------------------------------------------
  ----------------------------------------------------------------------------


  Excited state 10 (A)                                             [converged]
  ----------------------------------------------------------------------------
  Term symbol:  11 (-) A                                    R^2 =  5.71122e-12

  Total energy:                                           -424.3073979801 a.u.
  Excitation energy:                                             314.626208 eV

  Osc. strength:                                                      0.000059
  Trans. dip. moment [a.u.]:           [  -0.001668,   -0.002192,   -0.000055]
  <i|r^2|0> [a.u.]:                    [   0.005432,   -0.019026,    0.001227]

  V1^2 = 0.9003, V2^2 = 0.0997

  Important amplitudes:
     core i     occ j      vir a      vir b          v   
    ------------------------------------------------------
     5 (A) A              29 (A) A                 0.5709
     5 (A) B              29 (A) B                -0.5347
    ------------------------------------------------------
  ----------------------------------------------------------------------------


  Excited state 11 (A)                                             [converged]
  ----------------------------------------------------------------------------
  Term symbol:  12 (-) A                                    R^2 =  1.04391e-10

  Total energy:                                           -424.3013803497 a.u.
  Excitation energy:                                             314.789956 eV

  Osc. strength:                                                      0.004941
  Trans. dip. moment [a.u.]:           [  -0.021030,    0.010933,    0.008883]
  <i|r^2|0> [a.u.]:                    [   0.052922,    0.101580,   -0.001742]

  V1^2 = 0.8928, V2^2 = 0.1072

  Important amplitudes:
     core i     occ j      vir a      vir b          v   
    ------------------------------------------------------
     5 (A) A              27 (A) A                 0.7365
     5 (A) A              24 (A) A                 0.4587
    ------------------------------------------------------
  ----------------------------------------------------------------------------


  Excited state 12 (A)                                             [converged]
  ----------------------------------------------------------------------------
  Term symbol:  13 (-) A                                    R^2 =  1.63283e-11

  Total energy:                                           -424.2945986660 a.u.
  Excitation energy:                                             314.974495 eV

  Osc. strength:                                                      0.000948
  Trans. dip. moment [a.u.]:           [  -0.005742,   -0.008861,   -0.003373]
  <i|r^2|0> [a.u.]:                    [   0.016591,   -0.079774,    0.002664]

  V1^2 = 0.8925, V2^2 = 0.1075

  Important amplitudes:
     core i     occ j      vir a      vir b          v   
    ------------------------------------------------------
     5 (A) A              26 (A) A                 0.5398
     5 (A) A              28 (A) A                 0.4568
    ------------------------------------------------------
  ----------------------------------------------------------------------------


  Excited state 13 (A)                                             [converged]
  ----------------------------------------------------------------------------
  Term symbol:  14 (-) A                                    R^2 =  1.38046e-11

  Total energy:                                           -424.2900473940 a.u.
  Excitation energy:                                             315.098341 eV

  Osc. strength:                                                      0.000837
  Trans. dip. moment [a.u.]:           [  -0.002360,   -0.008850,    0.004947]
  <i|r^2|0> [a.u.]:                    [   0.008693,   -0.079032,    0.002001]

  V1^2 = 0.8920, V2^2 = 0.1080

  Important amplitudes:
     core i     occ j      vir a      vir b          v   
    ------------------------------------------------------
     5 (A) A              26 (A) A                 0.5831
     5 (A) A              28 (A) A                -0.4038
    ------------------------------------------------------
  ----------------------------------------------------------------------------


  Excited state 14 (A)                                             [converged]
  ----------------------------------------------------------------------------
  Term symbol:  15 (-) A                                    R^2 =  3.89920e-11

  Total energy:                                           -424.2798307939 a.u.
  Excitation energy:                                             315.376349 eV

  Osc. strength:                                                      0.021354
  Trans. dip. moment [a.u.]:           [  -0.051718,    0.007239,    0.006050]
  <i|r^2|0> [a.u.]:                    [   0.134875,    0.072589,    0.003260]

  V1^2 = 0.8929, V2^2 = 0.1071

  Important amplitudes:
     core i     occ j      vir a      vir b          v   
    ------------------------------------------------------
     5 (A) B              27 (A) B                 0.6585
     5 (A) B              26 (A) B                 0.3671
    ------------------------------------------------------
  ----------------------------------------------------------------------------


  Excited state 15 (A)                                             [converged]
  ----------------------------------------------------------------------------
  Term symbol:  16 (-) A                                    R^2 =  7.88171e-11

  Total energy:                                           -424.2795812307 a.u.
  Excitation energy:                                             315.383140 eV

  Osc. strength:                                                      0.016657
  Trans. dip. moment [a.u.]:           [  -0.003235,    0.035539,    0.029703]
  <i|r^2|0> [a.u.]:                    [   0.000179,    0.320765,   -0.012841]

  V1^2 = 0.8943, V2^2 = 0.1057

  Important amplitudes:
     core i     occ j      vir a      vir b          v   
    ------------------------------------------------------
     5 (A) B              26 (A) B                -0.5989
     5 (A) B              27 (A) B                 0.3946
    ------------------------------------------------------
  ----------------------------------------------------------------------------


  Excited state 16 (A)                                             [converged]
  ----------------------------------------------------------------------------
  Term symbol:  17 (-) A                                    R^2 =  2.09771e-12

  Total energy:                                           -424.2750362768 a.u.
  Excitation energy:                                             315.506815 eV

  Osc. strength:                                                      0.020015
  Trans. dip. moment [a.u.]:           [   0.020551,   -0.000329,    0.046550]
  <i|r^2|0> [a.u.]:                    [  -0.043010,    0.006150,    0.001459]

  V1^2 = 0.8956, V2^2 = 0.1044

  Important amplitudes:
     core i     occ j      vir a      vir b          v   
    ------------------------------------------------------
     5 (A) B              28 (A) B                -0.5565
     5 (A) A              28 (A) A                -0.4530
    ------------------------------------------------------
  ----------------------------------------------------------------------------


  Excited state 17 (A)                                             [converged]
  ----------------------------------------------------------------------------
  Term symbol:  18 (-) A                                    R^2 =  7.49082e-12

  Total energy:                                           -424.2732229415 a.u.
  Excitation energy:                                             315.556158 eV

  Osc. strength:                                                      0.018832
  Trans. dip. moment [a.u.]:           [  -0.011642,   -0.041590,    0.023889]
  <i|r^2|0> [a.u.]:                    [   0.014269,   -0.400715,   -0.018492]

  V1^2 = 0.9014, V2^2 = 0.0986

  Important amplitudes:
     core i     occ j      vir a      vir b          v   
    ------------------------------------------------------
     5 (A) B              29 (A) B                -0.6150
     5 (A) A              29 (A) A                -0.5843
    ------------------------------------------------------
  ----------------------------------------------------------------------------


  Excited state 18 (A)                                         [not converged]
  ----------------------------------------------------------------------------
  Term symbol:  19 (-) A                                    R^2 =  5.49987e-06

  Total energy:                                           -423.7646310940 a.u.
  Excitation energy:                                             329.395646 eV


  V1^2 = 0.8859, V2^2 = 0.1141

  Important amplitudes:
     core i     occ j      vir a      vir b          v   
    ------------------------------------------------------
     5 (A) A              30 (A) A                 0.9198
     5 (A) A              36 (A) A                -0.1659
    ------------------------------------------------------
  ----------------------------------------------------------------------------


  Excited state 19 (A)                                             [converged]
  ----------------------------------------------------------------------------
  Term symbol:  20 (-) A                                    R^2 =  6.01349e-07

  Total energy:                                           -423.7397095953 a.u.
  Excitation energy:                                             330.073795 eV

  Osc. strength:                                                      0.000105
  Trans. dip. moment [a.u.]:           [   0.001584,    0.000427,    0.003208]
  <i|r^2|0> [a.u.]:                    [  -0.002812,    0.005659,   -0.003514]

  V1^2 = 0.8880, V2^2 = 0.1120

  Important amplitudes:
     core i     occ j      vir a      vir b          v   
    ------------------------------------------------------
     5 (A) A              31 (A) A                -0.9072
     5 (A) A              37 (A) A                 0.1636
    ------------------------------------------------------
  ----------------------------------------------------------------------------


  Excited state 20 (A)                                         [not converged]
  ----------------------------------------------------------------------------
  Term symbol:  21 (-) A                                    R^2 =  6.80514e-06

  Total energy:                                           -423.7316627268 a.u.
  Excitation energy:                                             330.292761 eV


  V1^2 = 0.8886, V2^2 = 0.1114

  Important amplitudes:
     core i     occ j      vir a      vir b          v   
    ------------------------------------------------------
     5 (A) B              30 (A) B                 0.9184
     5 (A) B              36 (A) B                -0.1616
    ------------------------------------------------------
  ----------------------------------------------------------------------------


--------------------------------------------------------------------------------
  Time of ADC calculation:  CPU 1188.25 s  wall 1212.00 s
================================================================================
 
 --------------------------------------------------------------
 
                    Orbital Energies (a.u.)
 --------------------------------------------------------------
 
 Alpha MOs
 -- Occupied --
-26.921 -26.685 -26.684 -26.679 -11.931  -2.215  -2.084  -1.999
 -1.997  -1.361  -1.333  -1.240  -1.237  -1.173  -1.158  -1.043
 -1.026  -1.025  -0.993  -0.989  -0.967
 -- Virtual --
 -0.037   0.144   0.167   0.180   0.352   0.403   0.412   0.429
  0.917   0.949   0.953   1.040   1.040   1.104   1.199   1.238
  1.294   1.299   1.346   1.348   1.350   1.392   1.418   1.514
  1.519   1.714   1.721   1.778   1.812   1.816   1.816   1.942
  1.957   1.986   1.995   2.006   2.037   2.048   2.101   2.256
  2.450   2.660   2.683   2.904   2.905   2.924   3.174   3.175
  3.228   4.085   4.405   4.638   4.665   6.024
 
 Beta MOs
 -- Occupied --
-26.868 -26.684 -26.683 -26.679 -11.932  -2.128  -1.997  -1.995
 -1.982  -1.331  -1.224  -1.210  -1.182  -1.134  -1.026  -1.024
 -1.018  -0.993  -0.987  -0.966
 -- Virtual --
 -0.382  -0.021   0.146   0.181   0.194   0.359   0.410   0.413
  0.429   0.960   0.974   1.005   1.041   1.042   1.110   1.247
  1.276   1.303   1.332   1.346   1.349   1.356   1.407   1.421
  1.554   1.558   1.751   1.752   1.790   1.813   1.820   1.820
  1.967   1.968   1.997   2.001   2.015   2.052   2.065   2.101
  2.263   2.462   2.669   2.684   2.906   2.908   2.939   3.175
  3.176   3.230   4.106   4.408   4.640   4.666   6.028
 --------------------------------------------------------------
 
          Ground-State Mulliken Net Atomic Charges

     Atom                 Charge (a.u.)    Spin (a.u.)
  --------------------------------------------------------
      1 C                     1.353550      -0.036801
      2 F                    -0.195979       0.014448
      3 F                    -0.195740       0.013386
      4 F                     0.226831       1.012523
      5 F                    -0.188661      -0.003556
  --------------------------------------------------------
  Sum of atomic charges =     1.000000
  Sum of spin   charges =     1.000000

 -----------------------------------------------------------------
                    Cartesian Multipole Moments
 -----------------------------------------------------------------
    Charge (ESU x 10^10)
                 4.8032
    Dipole Moment (Debye)
         X      -4.1519      Y       9.1870      Z       0.7671
       Tot      10.1108
    Quadrupole Moments (Debye-Ang)
        XX     -17.6664     XY      -7.2363     YY      -1.8854
        XZ      -1.2156     YZ       0.6786     ZZ     -21.5882
    Octopole Moments (Debye-Ang^2)
       XXX      40.4808    XXY     -45.2244    XYY       0.9960
       YYY    -108.1323    XXZ       2.0648    XYZ      -1.5465
       YYZ       0.2410    XZZ      14.4231    YZZ     -51.4919
       ZZZ       0.6059
    Hexadecapole Moments (Debye-Ang^3)
      XXXX    -125.6633   XXXY     100.8976   XXYY    -145.8274
      XYYY      77.2150   YYYY    -688.5670   XXXZ      -3.3650
      XXYZ       3.0257   XYYZ      -2.3643   YYYZ      -0.5391
      XXZZ     -33.0349   XYZZ      34.5503   YYZZ    -145.7411
      XZZZ      -0.2682   YZZZ       1.2369   ZZZZ     -70.2322
 -----------------------------------------------------------------
Archival summary:
1\1\tp-linux1\SP\HF\6-31G*\41(1+,2)\thomas\WedMar2212:58:122017WedMar2212:58:122017\0\\#,HF,6-31G*,\\1,2\C\F,1,1.25325\F,1,1.26052,2,114.566\F,1,1.26084,2,114.546,3,134.687,0\F,1,1.46363,2,104.376,3,-112.679,0\\HF=-435.120459\\@

 Total job time:  1225.30s(wall), 1197.62s(cpu) 
 Wed Mar 22 12:58:12 2017

        *************************************************************
        *                                                           *
        *  Thank you very much for using Q-Chem.  Have a nice day.  *
        *                                                           *
        *************************************************************


0 sent ACK to 0 
now end server 0 ... 
cleanup process ... done
