
Running Job 1 of 1 ddtraj1t8.inp
qchem ddtraj1t8.inp_26516.0 /scratch/qchem/qchem26516/ 1
/mnt/software/qchem/bin/mpi/mpirun_qchem -machinefile /mnt/software/qchem/bin/mpi/machines -np 1 /mnt/software/qchem/exe/qcprog.exe ddtraj1t8.inp_26516.0 /scratch/qchem/qchem26516/

Process 0 of 1 is on tp-linux1 - thread support 0
initial socket setup ...start
initial socket setup ...done 
now start server 0 ... 

cmd = ssh tp-linux1 /mnt/software/qchem/bin/get_hostid 1035797680 > /scratch/qchem/qchem26516/lic.dat
                  Welcome to Q-Chem
     A Quantum Leap Into The Future Of Chemistry


 Q-Chem 4.3, Q-Chem, Inc., Pleasanton, CA (2015)

 Y. Shao,  Z. Gan,  E. Epifanovsky,  A. T. B. Gilbert,  M. Wormit,  
 J. Kussmann,  A. W. Lange,  A. Behn,  J. Deng,  X. Feng,  D. Ghosh,  
 M. Goldey,  P. R. Horn,  L. D. Jacobson,  I. Kaliman,  R. Z. Khaliullin,  
 T. Kus,  A. Landau,  J. Liu,  E. I. Proynov,  Y. M. Rhee,  R. M. Richard,  
 M. A. Rohrdanz,  R. P. Steele,  E. J. Sundstrom,  H. L. Woodcock III,  
 P. M. Zimmerman,  D. Zuev,  B. Albrecht,  E. Alguire,  B. Austin,  
 S. A. Baeppler,  G. J. O. Beran,  Y. A. Bernard,  E. Berquist,  
 K. Brandhorst,  K. B. Bravaya,  S. T. Brown,  D. Casanova,  C.-M. Chang,  
 Y. Chen,  S. H. Chien,  K. D. Closser,  D. L. Crittenden,  M. Diedenhofen,  
 R. A. DiStasio Jr.,  H. Do,  A. D. Dutoi,  R. G. Edgar,  P.-T. Fang,  
 S. Fatehi,  Q. Feng,  L. Fusti-Molnar,  A. Ghysels,  
 A. Golubeva-Zadorozhnaya,  J. Gomes,  A. Gunina,  M. W. D. Hanson-Heine,  
 P. H. P. Harbach,  A. W. Hauser,  E. G. Hohenstein,  Z. C. Holden,  K. Hui,  
 T.-C. Jagau,  H. Ji,  B. Kaduk,  K. Khistyaev,  Jaehoon Kim,  Jihan Kim,  
 R. A. King,  P. Klunzinger,  D. Kosenkov,  T. Kowalczyk,  C. M. Krauter,  
 K. U. Lao,  A. Laurent,  K. V. Lawler,  S. Lehtola,  S. V. Levchenko,  
 C. Y. Lin,  Y.-S. Lin,  F. Liu,  E. Livshits,  R. C. Lochan,  A. Luenser,  
 P. Manohar,  S. F. Manzer,  S.-P. Mao,  N. Mardirossian,  A. V. Marenich,  
 L. A. Martinez-Martinez,  S. A. Maurer,  N. J. Mayhall,  K. Nanda,  
 C. M. Oana,  R. Olivares-Amaya,  D. P. O'Neill,  J. A. Parkhill,  
 T. M. Perrine,  R. Peverati,  P. A. Pieniazek,  F. Plasser,  A. Prociuk,  
 D. R. Rehn,  E. Rosta,  N. J. Russ,  N. Sergueev,  S. M. Sharada,  
 S. Sharma,  D. W. Small,  A. Sodt,  T. Stauch,  T. Stein,  D. Stuck,  
 Y.-C. Su,  A. J. W. Thom,  T. Tsuchimochi,  L. Vogt,  O. Vydrov,  T. Wang,  
 M. A. Watson,  J. Wenzel,  A. White,  C. F. Williams,  V. Vanovschi,  
 S. Yeganeh,  S. R. Yost,  Z.-Q. You,  I. Y. Zhang,  X. Zhang,  Y. Zhao,  
 B. R. Brooks,  G. K. L. Chan,  D. M. Chipman,  C. J. Cramer,  
 W. A. Goddard III,  M. S. Gordon,  W. J. Hehre,  A. Klamt,  
 H. F. Schaefer III,  M. W. Schmidt,  C. D. Sherrill,  D. G. Truhlar,  
 A. Warshel,  X. Xu,  A. Aspuru-Guzik,  R. Baer,  A. T. Bell,  N. A. Besley,  
 J.-D. Chai,  A. Dreuw,  B. D. Dunietz,  T. R. Furlani,  S. R. Gwaltney,  
 C.-P. Hsu,  Y. Jung,  J. Kong,  D. S. Lambrecht,  W. Liang,  C. Ochsenfeld,  
 V. A. Rassolov,  L. V. Slipchenko,  J. E. Subotnik,  T. Van Voorhis,  
 J. M. Herbert,  A. I. Krylov,  P. M. W. Gill,  M. Head-Gordon

 Contributors to earlier versions of Q-Chem not listed above: 
 R. D. Adamson,  J. Baker,  E. F. C. Byrd,  A. K. Chakraborty,  C.-L. Cheng,  
 H. Dachsel,  R. J. Doerksen,  G. Hawkins,  A. Heyden,  S. Hirata,  
 G. Kedziora,  F. J. Keil,  C. Kelley,  P. P. Korambath,  W. Kurlancheek,  
 A. M. Lee,  M. S. Lee,  D. Liotard,  I. Lotan,  P. E. Maslen,  N. Nair,  
 D. Neuhauser,  R. Olson,  B. Peters,  J. Ritchie,  N. E. Schultz,  
 N. Shenvi,  A. C. Simmonett,  K. S. Thanthiriwatte,  Q. Wu,  W. Zhang

 Please cite Q-Chem as follows:
 Y. Shao et al., Mol. Phys. 113, 184-215 (2015)
 DOI: 10.1080/00268976.2014.952696

 Q-Chem 4.3.0 for Intel X86 Linux

 Parts of Q-Chem use Armadillo 5.200.1 (Boston Tea Smuggler).
 http://arma.sourceforge.net/

 Q-Chem begins on Wed Mar 22 13:45:38 2017  

Host: 
0

     Scratch files written to /scratch/qchem/qchem26516//
 Nov1815 1189b_ 19540  19532 5443   
 Parallel job on  1  processors
Processing $rem in /mnt/software/qchem/config/preferences.
 MEM_TOTAL  2000 

Checking the input file for inconsistencies... 	...done.

--------------------------------------------------------------
User input:
--------------------------------------------------------------
$comment
XAS calculation for valence excited states for CF4+ using cvs-adc(2) + 6-31G* basis set
job 1 - determination of HF orbitals
$end

$molecule
1 2
6  -0.615483  2.581849  -0.092475
9  0.583725  2.329011  0.006296
9  -1.138095  3.264803  0.785491
9  -1.161469  1.114559  0.460788
9  -1.134478  2.543666  -1.194165
$end

$comment
cvs-adc(2) calculation
$end

$rem
mem_total 3000
mem_static 1500
sym_ignore true
method cvs-adc(2)
basis 6-31G*
ee_singlets 20
cc_rest_occ 5                  !only excitations from the lowest N orbitals
unrestricted  true
max_scf_cycles 200
SCF_ALGORITHM = DIIS_GDM
SCF_CONVERGENCE = 7
THRESH = 10
$end
--------------------------------------------------------------
 ----------------------------------------------------------------
             Standard Nuclear Orientation (Angstroms)
    I     Atom           X                Y                Z
 ----------------------------------------------------------------
    1      C      -0.6154830000     2.5818490000    -0.0924750000
    2      F       0.5837250000     2.3290110000     0.0062960000
    3      F      -1.1380950000     3.2648030000     0.7854910000
    4      F      -1.1614690000     1.1145590000     0.4607880000
    5      F      -1.1344780000     2.5436660000    -1.1941650000
 ----------------------------------------------------------------
 Nuclear Repulsion Energy =   207.1925463175 hartrees
 There are       21 alpha and       20 beta electrons
 Requested basis set is 6-31G(d)
 There are 20 shells and 75 basis functions

 Total QAlloc Memory Limit   3000 MB
 Mega-Array Size      1467 MB
 MEM_STATIC part      1500 MB

                       Distance Matrix (Angstroms)
             C (  1)   F (  2)   F (  3)   F (  4)
   F (  2)  1.229546
   F (  3)  1.228973  2.108913
   F (  4)  1.660464  2.174203  2.174748
   F (  5)  1.218415  2.106990  2.106915  2.186766
 
 tim1(1): 
  3.999999999999997E-003
 tim1(2): 
  0.000000000000000E+000
 A cutoff of  1.0D-10 yielded    204 shell pairs
 There are      2979 function pairs
 
 -------------------------------------------------------
 OpenMP Integral Computing Module                       
 Release: version 1.0, May 2013, Q-Chem Inc. Pittsburgh 
 -------------------------------------------------------
 Integral Job Info:
 Integral job number is                      11
 Integral operator is                         1
 short-range coefficients                     0
 long-range coefficients              100000000
 Omega coefficients                           0
 if combine SR and LR in K                    0
 Integral screening is                        0
 Integral computing path is                   2
 max size of driver memory is            800000
 size of driver memory is                593474
 size of scratch memory is              2260544
 max col of scratch BK array               1296
 max len of scratch array in speh3          155
 max len of scratch index in speh4           18
 max int batch size is                      520
 min int batch size is                       52
 fixed nKL is                                52
 max L of basis functions is                  2
 order of int derivative is                   0
 number of shells is                         20
 number of basis is                          75
 number of cartesian basis is                75
 number of contracted shell pairs           204
 number of primitive shell pairs           1064
 maxK2 (contraction) of shell pair           36
 max number of K2 of shell pair               1
 max number of CS2 of shell pair             37
 max number of PS2 of shell pair            222
 mem total for path MDJ                   21832
 -------------------------------------------------------
 Smallest overlap matrix eigenvalue = 1.59E-03

 Scale SEOQF with 1.000000e+00/1.000000e-01/1.000000e+00

 Standard Electronic Orientation quadrupole field applied
 Nucleus-field energy     =     0.0000000109 hartrees
 Guess from superposition of atomic densities
 Warning:  Energy on first SCF cycle will be non-variational
 An unrestricted Hartree-Fock SCF calculation will be
 performed using Pulay DIIS + Geometric Direct Minimization
 SCF converges when RMS gradient is below 1.0E-07
 ---------------------------------------
  Cycle       Energy         DIIS Error
 ---------------------------------------
    1    -436.6586083379      9.34E-02
    2    -434.9009290876      1.84E-02
    3    -435.1036080660      7.98E-03 Done DIIS. Switching to GDM
    4    -435.1408095029      5.25E-02 Normal BFGS step
    5    -435.1449373969      2.39E-02 Normal BFGS step
    6    -435.1459614494      5.21E-03 Normal BFGS step
    7    -435.1460492838      4.46E-03 Normal BFGS step
    8    -435.1461427023      3.14E-03 Normal BFGS step
    9    -435.1461889282      2.78E-03 Normal BFGS step
   10    -435.1462788055      2.10E-03 Normal BFGS step
   11    -435.1463283447      1.68E-03 Normal BFGS step
   12    -435.1463516093      6.96E-04 Normal BFGS step
   13    -435.1463557342      1.95E-04 Normal BFGS step
   14    -435.1463563481      1.29E-04 Normal BFGS step
   15    -435.1463564725      1.36E-04 Normal BFGS step
   16    -435.1463565454      1.39E-04 Normal BFGS step
   17    -435.1463566621      1.41E-04 Normal BFGS step
   18    -435.1463569315      1.52E-04 Normal BFGS step
   19    -435.1463575925      2.70E-04 Normal BFGS step
   20    -435.1463593013      4.55E-04 Normal BFGS step
   21    -435.1463638445      7.72E-04 Normal BFGS step
   22    -435.1463738474      1.36E-03 Normal BFGS step
   23    -435.1463869672      1.53E-03 Normal BFGS step
   24    -435.1464128142      3.31E-03 Normal BFGS step
   25    -435.1464705642      4.39E-04 Normal BFGS step
   26    -435.1464913610      8.83E-04 Normal BFGS step
   27    -435.1465055760      2.26E-03 Normal BFGS step
   28    -435.1465298777      1.06E-03 Normal BFGS step
   29    -435.1465550826      6.07E-04 Normal BFGS step
   30    -435.1465467387      2.40E-03 Line search: overstep
   31    -435.1465736480      1.14E-03 Dog-leg BFGS step
   32    -435.1465893910      1.13E-03 Normal BFGS step
   33    -435.1465964875      5.76E-04 Normal BFGS step
   34    -435.1466037833      9.23E-04 Normal BFGS step
   35    -435.1466094417      3.59E-04 Normal BFGS step
   36    -435.1466129299      2.63E-04 Normal BFGS step
   37    -435.1466143348      1.77E-04 Normal BFGS step
   38    -435.1466145858      2.73E-04 Normal BFGS step
   39    -435.1466149525      2.89E-05 Normal BFGS step
   40    -435.1466149780      2.20E-05 Normal BFGS step
   41    -435.1466149846      1.62E-05 Normal BFGS step
   42    -435.1466149861      1.33E-05 Normal BFGS step
   43    -435.1466149875      9.94E-06 Normal BFGS step
   44    -435.1466149889      8.57E-06 Normal BFGS step
   45    -435.1466149898      5.67E-06 Normal BFGS step
   46    -435.1466149900      2.12E-06 Normal BFGS step
   47    -435.1466149901      7.77E-07 Normal BFGS step
   48    -435.1466149901      2.55E-07 Normal BFGS step
   49    -435.1466149901      7.92E-08 Convergence criterion met
 ---------------------------------------
 <S^2> = 0.7543
 SCF time:  CPU 7.33 s  wall 10.31 s
 SCF   energy in the final basis set = -435.1466149901
 Total energy in the final basis set = -435.1466149901
================================================================================
|                                                                              |
|                                 A D C  M A N                                 |
|                                                                              |
 ------------------------------------------------------------------------------ 
|                                                                              |
| Components:                                                                  |
|                                                                              |
| - libvmm - 1.2-release                                                       |
|   Authors:                                                                   |
|   Evgeny Epifanovsky, Ilya Kaliman                                           |
|                                                                              |
| - libtensor - 2.4-trunk                                                      |
|   Authors:                                                                   |
|   Evgeny Epifanovsky, Michael Wormit, Dmitry Zuev, Sam Manzer                |
|                                                                              |
| - libwfa - 1.1-beta                                                          |
|   Authors:                                                                   |
|   Felix Plasser, Stefanie Baeppler, Benjamin Thomitzni, Michael Wormit       |
|                                                                              |
| - libadc - 1.0-beta                                                          |
|   Authors:                                                                   |
|   Michael Wormit, Philipp H. P. Harbach, Caroline Krauter, Dirk Rehn,        |
|   Matthias Schneider, Jan Wenzel                                             |
|                                                                              |
| - adcman - 2.4-beta                                                          |
|   Authors:                                                                   |
|   Michael Wormit, Philipp H. P. Harbach, Caroline Krauter, Dirk Rehn,        |
|   Jan Wenzel, Andreas Dreuw                                                  |
|                                                                              |
| Authors of earlier versions of ADCMAN:                                       |
| Andreas Dreuw, Jan Hendrik Starcke, Dirk Rehn, Michael Wormit                |
|                                                                              |
================================================================================

 
 Alpha MOs, Unrestricted
 -- Occupied --                  
-26.808 -26.709 -26.708 -26.708 -11.935  -2.159  -2.057  -2.038
  1 A     2 A     3 A     4 A     5 A     6 A     7 A     8 A                  
 -2.034  -1.316  -1.239  -1.224  -1.218  -1.199  -1.118  -1.046
  9 A    10 A    11 A    12 A    13 A    14 A    15 A    16 A                  
 -1.046  -1.038  -1.020  -1.013  -0.992
 17 A    18 A    19 A    20 A    21 A                                          
 -- Virtual --                   
 -0.099   0.091   0.215   0.225   0.400   0.423   0.430   0.436
 22 A    23 A    24 A    25 A    26 A    27 A    28 A    29 A                  
  0.934   0.967   0.968   1.026   1.028   1.075   1.257   1.283
 30 A    31 A    32 A    33 A    34 A    35 A    36 A    37 A                  
  1.286   1.290   1.303   1.306   1.316   1.328   1.468   1.589
 38 A    39 A    40 A    41 A    42 A    43 A    44 A    45 A                  
  1.591   1.633   1.695   1.707   1.790   1.793   1.799   1.970
 46 A    47 A    48 A    49 A    50 A    51 A    52 A    53 A                  
  1.971   1.977   1.982   2.051   2.064   2.073   2.081   2.143
 54 A    55 A    56 A    57 A    58 A    59 A    60 A    61 A                  
  2.485   2.681   2.697   2.781   3.002   3.015   3.261   3.265
 62 A    63 A    64 A    65 A    66 A    67 A    68 A    69 A                  
  3.300   3.918   4.405   4.897   4.944   6.226
 70 A    71 A    72 A    73 A    74 A    75 A                                  
 
 Beta MOs, Unrestricted
 -- Occupied --                  
-26.757 -26.709 -26.708 -26.707 -11.936  -2.149  -2.038  -2.033
  1 A     2 A     3 A     4 A     5 A     6 A     7 A     8 A                  
 -1.875  -1.310  -1.217  -1.214  -1.207  -1.077  -1.047  -1.044
  9 A    10 A    11 A    12 A    13 A    14 A    15 A    16 A                  
 -1.024  -1.003  -0.998  -0.992
 17 A    18 A    19 A    20 A                                                  
 -- Virtual --                   
 -0.288  -0.092   0.095   0.226   0.232   0.405   0.428   0.432
 21 A    22 A    23 A    24 A    25 A    26 A    27 A    28 A                  
  0.437   0.977   0.984   1.024   1.027   1.029   1.088   1.284
 29 A    30 A    31 A    32 A    33 A    34 A    35 A    36 A                  
  1.285   1.292   1.298   1.311   1.328   1.328   1.393   1.478
 37 A    38 A    39 A    40 A    41 A    42 A    43 A    44 A                  
  1.612   1.615   1.643   1.740   1.741   1.799   1.809   1.811
 45 A    46 A    47 A    48 A    49 A    50 A    51 A    52 A                  
  1.971   1.974   1.996   2.001   2.072   2.073   2.088   2.098
 53 A    54 A    55 A    56 A    57 A    58 A    59 A    60 A                  
  2.148   2.488   2.683   2.697   2.801   3.003   3.015   3.262
 61 A    62 A    63 A    64 A    65 A    66 A    67 A    68 A                  
  3.267   3.302   3.944   4.408   4.899   4.945   6.228
 69 A    70 A    71 A    72 A    73 A    74 A    75 A                          
 

--------------------------------------------------------------------------------
                                   HF Summary                                   
--------------------------------------------------------------------------------
  Energy:                                                 -435.1466149901 a.u.
  Dip. moment [a.u.]:                  [ -54.042706,  182.397618,   -0.108533]
  Total dipole [Debye]:                                             483.530311
  <r^2> [a.u.]:                        [ 158.879242,  903.853586,   88.421713]
  Total <r^2> [a.u.]:                                              1151.154542
--------------------------------------------------------------------------------

--------------------------------------------------------------------------------
                                 MP(2) Summary                                  
--------------------------------------------------------------------------------
  Energy contribution:                                      -0.7439654863 a.u.
  Total energy:                                           -435.8905804763 a.u.
  Dip. moment [a.u.]:                  [ -54.047473,  182.391791,   -0.111288]
  Total dipole [Debye]:                                             483.519558
  <r^2> [a.u.]:                        [ 158.703297,  903.849071,   88.240251]
  Total <r^2> [a.u.]:                                              1150.792619
--------------------------------------------------------------------------------
  Starting Davidson ... 
--------------------------------------------------------------------------------
   It NVec Conv  Avg. Norm  Max. Norm  Conv. states           Remark
--------------------------------------------------------------------------------
        20    0  2.104e-01  1.137e+00 11.0200 n n n n n n n n Guess.
    1   40    0  3.352e-02  3.441e-01 10.8586 n n n n n n n n 
    2   60    0  7.905e-03  8.031e-02 10.8571 n n n n n n n n 
    3   80    0  2.274e-03  2.350e-02 10.8571 n n n n n n n n 
    4  100    0  1.509e-03  2.059e-02 10.8571 n n n n n n n n 
    5   40    0  7.261e-04  8.323e-03 10.8571 n n n n n n n n Subspace collapsed.
    6   60    0  5.922e-04  8.223e-03 10.8571 n n n n n n n n 
    7   80    0  4.678e-04  6.435e-03 10.8571 n n n n n n n n 
    8  100    2  2.380e-04  3.372e-03 10.8571 y n y n n n n n 
    9   40    6  1.219e-04  1.650e-03 10.8571 y y y n y y n n Subspace collapsed.
   10   60    7  6.626e-05  9.119e-04 10.8571 y y y n y y y n 
   11   80   10  5.184e-05  7.335e-04 10.8571 y y y y y y y y 
   12  100   14  3.860e-05  5.467e-04 10.8571 y y y y y y y y 
   13   40   17  2.781e-05  3.759e-04 10.8571 y y y y y y y y Subspace collapsed.
   14   60   17  2.275e-05  2.914e-04 10.8571 y y y y y y y y 
   15   80   17  1.745e-05  2.250e-04 10.8571 y y y y y y y y 
   16  100   17  1.649e-05  1.949e-04 10.8571 y y y y y y y y 
   17   38   17  7.926e-06  9.770e-05 10.8571 y y y y y y y y Subspace collapsed.
   18   56   17  6.800e-06  8.060e-05 10.8571 y y y y y y y y 
   19   58   17  6.660e-06  7.839e-05 10.8571 y y y y y y y y 
   20   59   17  6.671e-06  7.863e-05 10.8571 y y y y y y y y 
   21   74   17  4.497e-06  5.642e-05 10.8571 y y y y y y y y 
   22   87   17  4.104e-06  6.086e-05 10.8571 y y y y y y y y 
   23  100   17  4.083e-06  5.238e-05 10.8571 y y y y y y y y 
   24   31   17  1.666e-06  2.340e-05 10.8571 y y y y y y y y Subspace collapsed.
   25   42   17  1.163e-06  1.376e-05 10.8571 y y y y y y y y 
   26   53   17  1.042e-06  1.380e-05 10.8571 y y y y y y y y 
   27   64   17  7.787e-07  1.098e-05 10.8571 y y y y y y y y 
   28   66   17  7.738e-07  1.089e-05 10.8571 y y y y y y y y 
   29   66   17  7.738e-07  1.089e-05 10.8571 y y y y y y y y 
   30   86   17  7.880e-07  1.221e-05 10.8571 y y y y y y y y 
   31   86   17  7.880e-07  1.221e-05 10.8571 y y y y y y y y 
   32   86   17  7.880e-07  1.221e-05 10.8571 y y y y y y y y 
   33  100   17  7.827e-07  1.206e-05 10.8571 y y y y y y y y 
   34   26   17  4.342e-07  6.828e-06 10.8571 y y y y y y y y Subspace collapsed.
   35   26   17  4.342e-07  6.828e-06 10.8571 y y y y y y y y 
   36   26   17  4.342e-07  6.828e-06 10.8571 y y y y y y y y 
   37   26   17  4.342e-07  6.828e-06 10.8571 y y y y y y y y 
   38   46   17  4.599e-07  7.175e-06 10.8571 y y y y y y y y 
   39   51   17  4.030e-07  6.816e-06 10.8571 y y y y y y y y 
   40   55   17  5.823e-07  1.073e-05 10.8571 y y y y y y y y 
   41   59   17  7.241e-07  1.408e-05 10.8571 y y y y y y y y 
   42   63   18  5.649e-07  1.118e-05 10.8571 y y y y y y y y 
   43   67   19  4.377e-07  8.700e-06 10.8571 y y y y y y y y 
   44   71   19  5.334e-07  1.063e-05 10.8571 y y y y y y y y 
   45   75   19  4.460e-07  8.905e-06 10.8571 y y y y y y y y 
   46   75   19  4.460e-07  8.905e-06 10.8571 y y y y y y y y 
   47   77   19  4.463e-07  8.910e-06 10.8571 y y y y y y y y 
   48   77   19  4.463e-07  8.910e-06 10.8571 y y y y y y y y 
   49   77   19  4.463e-07  8.910e-06 10.8571 y y y y y y y y 
   50   77   19  4.463e-07  8.910e-06 10.8571 y y y y y y y y 
   51   97   19  2.842e-07  5.676e-06 10.8571 y y y y y y y y 
   52  100   19  1.220e-07  2.438e-06 10.8571 y y y y y y y y 
   53   23   19  5.750e-08  1.149e-06 10.8571 y y y y y y y y Subspace collapsed.
   54   26   20  3.238e-08  6.467e-07 10.8571 y y y y y y y y Converged.
--------------------------------------------------------------------------------
  Davidson Summary: 
 ------------------------------------------------------------
  State  0: excitation energy =  10.8571 a.u.   (converged)
  State  1: excitation energy =  10.9153 a.u.   (converged)
  State  2: excitation energy =  10.9394 a.u.   (converged)
  State  3: excitation energy =  11.1845 a.u.   (converged)
  State  4: excitation energy =  11.2185 a.u.   (converged)
  State  5: excitation energy =  11.2298 a.u.   (converged)
  State  6: excitation energy =  11.2588 a.u.   (converged)
  State  7: excitation energy =  11.2985 a.u.   (converged)
  State  8: excitation energy =  11.3093 a.u.   (converged)
  State  9: excitation energy =  11.5373 a.u.   (converged)
  State 10: excitation energy =  11.5810 a.u.   (converged)
  State 11: excitation energy =  11.5832 a.u.   (converged)
  State 12: excitation energy =  11.5897 a.u.   (converged)
  State 13: excitation energy =  11.6015 a.u.   (converged)
  State 14: excitation energy =  11.6042 a.u.   (converged)
  State 15: excitation energy =  11.6412 a.u.   (converged)
  State 16: excitation energy =  11.6589 a.u.   (converged)
  State 17: excitation energy =  12.1380 a.u.   (converged)
  State 18: excitation energy =  12.1636 a.u.   (converged)
  State 19: excitation energy =  12.1702 a.u.   (converged)
 ------------------------------------------------------------


--------------------------------------------------------------------------------
                             Excited State Summary
--------------------------------------------------------------------------------

  Excited state  1 (A)                                             [converged]
  ----------------------------------------------------------------------------
  Term symbol:  2 (-) A                                     R^2 =  2.50940e-13

  Total energy:                                           -425.0335294894 a.u.
  Excitation energy:                                             295.435382 eV

  Osc. strength:                                                      0.000386
  Trans. dip. moment [a.u.]:           [   0.002417,    0.006459,   -0.002405]
  <i|r^2|0> [a.u.]:                    [  -0.005982,    0.062509,    0.000480]

  V1^2 = 0.9624, V2^2 = 0.0376

  Important amplitudes:
     core i     occ j      vir a      vir b          v   
    ------------------------------------------------------
     5 (A) A              22 (A) A                 0.7042
     5 (A) B              22 (A) B                -0.6285
    ------------------------------------------------------
  ----------------------------------------------------------------------------


  Excited state  2 (A)                                             [converged]
  ----------------------------------------------------------------------------
  Term symbol:  3 (-) A                                     R^2 =  3.88130e-14

  Total energy:                                           -424.9752445006 a.u.
  Excitation energy:                                             297.021398 eV

  Osc. strength:                                                      0.000003
  Trans. dip. moment [a.u.]:           [   0.000401,   -0.000533,   -0.000115]
  <i|r^2|0> [a.u.]:                    [  -0.001694,   -0.004554,    0.000189]

  V1^2 = 0.8598, V2^2 = 0.1402

  Important amplitudes:
     core i     occ j      vir a      vir b          v   
    ------------------------------------------------------
     5 (A) B              21 (A) B                 0.9251
     5 (A) B   12 (A) A   22 (A) A   21 (A) B      0.0819
    ------------------------------------------------------
  ----------------------------------------------------------------------------


  Excited state  3 (A)                                             [converged]
  ----------------------------------------------------------------------------
  Term symbol:  4 (-) A                                     R^2 =  1.77366e-13

  Total energy:                                           -424.9511578014 a.u.
  Excitation energy:                                             297.676830 eV

  Osc. strength:                                                      0.123599
  Trans. dip. moment [a.u.]:           [   0.043743,    0.115270,   -0.041797]
  <i|r^2|0> [a.u.]:                    [  -0.107321,    1.120011,    0.009050]

  V1^2 = 0.9586, V2^2 = 0.0414

  Important amplitudes:
     core i     occ j      vir a      vir b          v   
    ------------------------------------------------------
     5 (A) B              22 (A) B                 0.7112
     5 (A) A              22 (A) A                 0.6374
    ------------------------------------------------------
  ----------------------------------------------------------------------------


  Excited state  4 (A)                                             [converged]
  ----------------------------------------------------------------------------
  Term symbol:  5 (-) A                                     R^2 =  6.00579e-14

  Total energy:                                           -424.7061183846 a.u.
  Excitation energy:                                             304.344692 eV

  Osc. strength:                                                      0.000014
  Trans. dip. moment [a.u.]:           [  -0.000575,   -0.001204,    0.000248]
  <i|r^2|0> [a.u.]:                    [   0.001054,   -0.012286,   -0.000380]

  V1^2 = 0.9326, V2^2 = 0.0674

  Important amplitudes:
     core i     occ j      vir a      vir b          v   
    ------------------------------------------------------
     5 (A) A              23 (A) A                -0.6162
     5 (A) B              23 (A) B                 0.5900
    ------------------------------------------------------
  ----------------------------------------------------------------------------


  Excited state  5 (A)                                             [converged]
  ----------------------------------------------------------------------------
  Term symbol:  6 (-) A                                     R^2 =  3.83418e-14

  Total energy:                                           -424.6721075384 a.u.
  Excitation energy:                                             305.270174 eV

  Osc. strength:                                                      0.000024
  Trans. dip. moment [a.u.]:           [  -0.001478,    0.000791,    0.000621]
  <i|r^2|0> [a.u.]:                    [   0.003583,    0.007639,   -0.000284]

  V1^2 = 0.9543, V2^2 = 0.0457

  Important amplitudes:
     core i     occ j      vir a      vir b          v   
    ------------------------------------------------------
     5 (A) A              24 (A) A                -0.5112
     5 (A) B              25 (A) B                 0.5095
    ------------------------------------------------------
  ----------------------------------------------------------------------------


  Excited state  6 (A)                                             [converged]
  ----------------------------------------------------------------------------
  Term symbol:  7 (-) A                                     R^2 =  4.13774e-14

  Total energy:                                           -424.6607498439 a.u.
  Excitation energy:                                             305.579232 eV

  Osc. strength:                                                      0.000000
  Trans. dip. moment [a.u.]:           [  -0.000112,   -0.000088,   -0.000172]
  <i|r^2|0> [a.u.]:                    [   0.000246,   -0.000899,    0.000025]

  V1^2 = 0.9539, V2^2 = 0.0461

  Important amplitudes:
     core i     occ j      vir a      vir b          v   
    ------------------------------------------------------
     5 (A) B              24 (A) B                 0.4977
     5 (A) A              25 (A) A                 0.4943
    ------------------------------------------------------
  ----------------------------------------------------------------------------


  Excited state  7 (A)                                             [converged]
  ----------------------------------------------------------------------------
  Term symbol:  8 (-) A                                     R^2 =  3.73083e-14

  Total energy:                                           -424.6318087286 a.u.
  Excitation energy:                                             306.366760 eV

  Osc. strength:                                                      0.001070
  Trans. dip. moment [a.u.]:           [  -0.007400,   -0.006623,   -0.006629]
  <i|r^2|0> [a.u.]:                    [  -0.002158,   -0.093095,   -0.017468]

  V1^2 = 0.9188, V2^2 = 0.0812

  Important amplitudes:
     core i     occ j      vir a      vir b          v   
    ------------------------------------------------------
     5 (A) B              23 (A) B                -0.6562
     5 (A) A              23 (A) A                -0.6326
    ------------------------------------------------------
  ----------------------------------------------------------------------------


  Excited state  8 (A)                                             [converged]
  ----------------------------------------------------------------------------
  Term symbol:  9 (-) A                                     R^2 =  2.64739e-14

  Total energy:                                           -424.5920413725 a.u.
  Excitation energy:                                             307.448885 eV

  Osc. strength:                                                      0.120797
  Trans. dip. moment [a.u.]:           [  -0.104655,    0.055836,    0.044348]
  <i|r^2|0> [a.u.]:                    [   0.250703,    0.542247,   -0.019803]

  V1^2 = 0.9456, V2^2 = 0.0544

  Important amplitudes:
     core i     occ j      vir a      vir b          v   
    ------------------------------------------------------
     5 (A) B              25 (A) B                -0.5659
     5 (A) A              24 (A) A                -0.5389
    ------------------------------------------------------
  ----------------------------------------------------------------------------


  Excited state  9 (A)                                             [converged]
  ----------------------------------------------------------------------------
  Term symbol:  10 (-) A                                    R^2 =  4.03506e-14

  Total energy:                                           -424.5812865896 a.u.
  Excitation energy:                                             307.741538 eV

  Osc. strength:                                                      0.118948
  Trans. dip. moment [a.u.]:           [   0.056526,    0.018201,    0.110680]
  <i|r^2|0> [a.u.]:                    [  -0.136526,    0.173834,   -0.033599]

  V1^2 = 0.9452, V2^2 = 0.0548

  Important amplitudes:
     core i     occ j      vir a      vir b          v   
    ------------------------------------------------------
     5 (A) A              25 (A) A                 0.5425
     5 (A) B              24 (A) B                -0.5425
    ------------------------------------------------------
  ----------------------------------------------------------------------------


  Excited state 10 (A)                                             [converged]
  ----------------------------------------------------------------------------
  Term symbol:  11 (-) A                                    R^2 =  3.29214e-14

  Total energy:                                           -424.3533071020 a.u.
  Excitation energy:                                             313.945175 eV

  Osc. strength:                                                      0.000000
  Trans. dip. moment [a.u.]:           [   0.000017,    0.000021,    0.000007]
  <i|r^2|0> [a.u.]:                    [  -0.000104,    0.000138,   -0.000065]

  V1^2 = 0.9094, V2^2 = 0.0906

  Important amplitudes:
     core i     occ j      vir a      vir b          v   
    ------------------------------------------------------
     5 (A) B              26 (A) B                -0.4530
     5 (A) A              26 (A) A                 0.4061
    ------------------------------------------------------
  ----------------------------------------------------------------------------


  Excited state 11 (A)                                             [converged]
  ----------------------------------------------------------------------------
  Term symbol:  12 (-) A                                    R^2 =  8.83838e-14

  Total energy:                                           -424.3095859858 a.u.
  Excitation energy:                                             315.134887 eV

  Osc. strength:                                                      0.019310
  Trans. dip. moment [a.u.]:           [  -0.016850,   -0.044159,    0.016346]
  <i|r^2|0> [a.u.]:                    [   0.020721,   -0.450171,   -0.023941]

  V1^2 = 0.9116, V2^2 = 0.0884

  Important amplitudes:
     core i     occ j      vir a      vir b          v   
    ------------------------------------------------------
     5 (A) B              26 (A) B                 0.5072
     5 (A) A              26 (A) A                 0.4672
    ------------------------------------------------------
  ----------------------------------------------------------------------------


  Excited state 12 (A)                                             [converged]
  ----------------------------------------------------------------------------
  Term symbol:  13 (-) A                                    R^2 =  4.06539e-14

  Total energy:                                           -424.3074266821 a.u.
  Excitation energy:                                             315.193645 eV

  Osc. strength:                                                      0.003849
  Trans. dip. moment [a.u.]:           [  -0.018334,    0.010202,    0.007625]
  <i|r^2|0> [a.u.]:                    [   0.043309,    0.099804,   -0.002941]

  V1^2 = 0.8932, V2^2 = 0.1068

  Important amplitudes:
     core i     occ j      vir a      vir b          v   
    ------------------------------------------------------
     5 (A) A              27 (A) A                -0.6538
     5 (A) A              24 (A) A                 0.5540
    ------------------------------------------------------
  ----------------------------------------------------------------------------


  Excited state 13 (A)                                             [converged]
  ----------------------------------------------------------------------------
  Term symbol:  14 (-) A                                    R^2 =  2.85025e-14

  Total energy:                                           -424.3009183656 a.u.
  Excitation energy:                                             315.370745 eV

  Osc. strength:                                                      0.000153
  Trans. dip. moment [a.u.]:           [   0.001895,    0.000540,    0.003992]
  <i|r^2|0> [a.u.]:                    [  -0.004847,    0.004821,   -0.001693]

  V1^2 = 0.8931, V2^2 = 0.1069

  Important amplitudes:
     core i     occ j      vir a      vir b          v   
    ------------------------------------------------------
     5 (A) A              25 (A) A                -0.4758
     5 (A) A              29 (A) A                 0.4642
    ------------------------------------------------------
  ----------------------------------------------------------------------------


  Excited state 14 (A)                                             [converged]
  ----------------------------------------------------------------------------
  Term symbol:  15 (-) A                                    R^2 =  4.47771e-14

  Total energy:                                           -424.2891185581 a.u.
  Excitation energy:                                             315.691834 eV

  Osc. strength:                                                      0.023544
  Trans. dip. moment [a.u.]:           [  -0.045744,    0.024182,    0.019154]
  <i|r^2|0> [a.u.]:                    [   0.107717,    0.235910,   -0.007677]

  V1^2 = 0.8937, V2^2 = 0.1063

  Important amplitudes:
     core i     occ j      vir a      vir b          v   
    ------------------------------------------------------
     5 (A) B              27 (A) B                -0.6952
     5 (A) B              25 (A) B                 0.4990
    ------------------------------------------------------
  ----------------------------------------------------------------------------


  Excited state 15 (A)                                             [converged]
  ----------------------------------------------------------------------------
  Term symbol:  16 (-) A                                    R^2 =  4.01009e-14

  Total energy:                                           -424.2863988203 a.u.
  Excitation energy:                                             315.765842 eV

  Osc. strength:                                                      0.028332
  Trans. dip. moment [a.u.]:           [   0.027760,    0.010722,    0.052695]
  <i|r^2|0> [a.u.]:                    [  -0.066634,    0.102747,   -0.018603]

  V1^2 = 0.8964, V2^2 = 0.1036

  Important amplitudes:
     core i     occ j      vir a      vir b          v   
    ------------------------------------------------------
     5 (A) B              29 (A) B                 0.4530
     5 (A) A              29 (A) A                 0.4472
    ------------------------------------------------------
  ----------------------------------------------------------------------------


  Excited state 16 (A)                                             [converged]
  ----------------------------------------------------------------------------
  Term symbol:  17 (-) A                                    R^2 =  1.53434e-13

  Total energy:                                           -424.2493380808 a.u.
  Excitation energy:                                             316.774316 eV

  Osc. strength:                                                      0.000698
  Trans. dip. moment [a.u.]:           [   0.002521,    0.008145,   -0.004151]
  <i|r^2|0> [a.u.]:                    [  -0.008877,    0.076051,   -0.001579]

  V1^2 = 0.8940, V2^2 = 0.1060

  Important amplitudes:
     core i     occ j      vir a      vir b          v   
    ------------------------------------------------------
     5 (A) A              26 (A) A                -0.5841
     5 (A) A              28 (A) A                 0.5107
    ------------------------------------------------------
  ----------------------------------------------------------------------------


  Excited state 17 (A)                                             [converged]
  ----------------------------------------------------------------------------
  Term symbol:  18 (-) A                                    R^2 =  3.20457e-13

  Total energy:                                           -424.2316413281 a.u.
  Excitation energy:                                             317.255869 eV

  Osc. strength:                                                      0.010008
  Trans. dip. moment [a.u.]:           [  -0.010667,   -0.031355,    0.013807]
  <i|r^2|0> [a.u.]:                    [   0.034907,   -0.294049,    0.005294]

  V1^2 = 0.8952, V2^2 = 0.1048

  Important amplitudes:
     core i     occ j      vir a      vir b          v   
    ------------------------------------------------------
     5 (A) B              28 (A) B                -0.5299
     5 (A) B              26 (A) B                 0.4994
    ------------------------------------------------------
  ----------------------------------------------------------------------------


  Excited state 18 (A)                                             [converged]
  ----------------------------------------------------------------------------
  Term symbol:  19 (-) A                                    R^2 =  2.56185e-08

  Total energy:                                           -423.7525384598 a.u.
  Excitation energy:                                             330.292921 eV

  Osc. strength:                                                      0.000014
  Trans. dip. moment [a.u.]:           [   0.001098,   -0.000598,   -0.000457]
  <i|r^2|0> [a.u.]:                    [   0.001310,   -0.012207,    0.002648]

  V1^2 = 0.8860, V2^2 = 0.1140

  Important amplitudes:
     core i     occ j      vir a      vir b          v   
    ------------------------------------------------------
     5 (A) A              30 (A) A                -0.9184
     5 (A) A              36 (A) A                 0.1869
    ------------------------------------------------------
  ----------------------------------------------------------------------------


  Excited state 19 (A)                                             [converged]
  ----------------------------------------------------------------------------
  Term symbol:  20 (-) A                                    R^2 =  2.39210e-08

  Total energy:                                           -423.7269371863 a.u.
  Excitation energy:                                             330.989567 eV

  Osc. strength:                                                      0.000023
  Trans. dip. moment [a.u.]:           [   0.000709,    0.000127,    0.001517]
  <i|r^2|0> [a.u.]:                    [   0.000283,    0.003241,   -0.004698]

  V1^2 = 0.8878, V2^2 = 0.1122

  Important amplitudes:
     core i     occ j      vir a      vir b          v   
    ------------------------------------------------------
     5 (A) A              31 (A) A                -0.9114
     5 (A) A              37 (A) A                 0.1460
    ------------------------------------------------------
  ----------------------------------------------------------------------------


  Excited state 20 (A)                                             [converged]
  ----------------------------------------------------------------------------
  Term symbol:  21 (-) A                                    R^2 =  6.46698e-07

  Total energy:                                           -423.7204038669 a.u.
  Excitation energy:                                             331.167348 eV

  Osc. strength:                                                      0.000036
  Trans. dip. moment [a.u.]:           [   0.000853,    0.000078,    0.001916]
  <i|r^2|0> [a.u.]:                    [   0.000286,    0.003097,   -0.005501]

  V1^2 = 0.8882, V2^2 = 0.1118

  Important amplitudes:
     core i     occ j      vir a      vir b          v   
    ------------------------------------------------------
     5 (A) B              30 (A) B                 0.9147
     5 (A) B              36 (A) B                 0.1274
    ------------------------------------------------------
  ----------------------------------------------------------------------------


--------------------------------------------------------------------------------
  Time of ADC calculation:  CPU 1205.91 s  wall 1233.45 s
================================================================================
 
 --------------------------------------------------------------
 
                    Orbital Energies (a.u.)
 --------------------------------------------------------------
 
 Alpha MOs
 -- Occupied --
-26.808 -26.709 -26.708 -26.708 -11.935  -2.159  -2.057  -2.038
 -2.034  -1.316  -1.239  -1.224  -1.218  -1.199  -1.118  -1.046
 -1.046  -1.038  -1.020  -1.013  -0.992
 -- Virtual --
 -0.099   0.091   0.215   0.225   0.400   0.423   0.430   0.436
  0.934   0.967   0.968   1.026   1.028   1.075   1.257   1.283
  1.286   1.290   1.303   1.306   1.316   1.328   1.468   1.589
  1.591   1.633   1.695   1.707   1.790   1.793   1.799   1.970
  1.971   1.977   1.982   2.051   2.064   2.073   2.081   2.143
  2.485   2.681   2.697   2.781   3.002   3.015   3.261   3.265
  3.300   3.918   4.405   4.897   4.944   6.226
 
 Beta MOs
 -- Occupied --
-26.757 -26.709 -26.708 -26.707 -11.936  -2.149  -2.038  -2.033
 -1.875  -1.310  -1.217  -1.214  -1.207  -1.077  -1.047  -1.044
 -1.024  -1.003  -0.998  -0.992
 -- Virtual --
 -0.288  -0.092   0.095   0.226   0.232   0.405   0.428   0.432
  0.437   0.977   0.984   1.024   1.027   1.029   1.088   1.284
  1.285   1.292   1.298   1.311   1.328   1.328   1.393   1.478
  1.612   1.615   1.643   1.740   1.741   1.799   1.809   1.811
  1.971   1.974   1.996   2.001   2.072   2.073   2.088   2.098
  2.148   2.488   2.683   2.697   2.801   3.003   3.015   3.262
  3.267   3.302   3.944   4.408   4.899   4.945   6.228
 --------------------------------------------------------------
 
          Ground-State Mulliken Net Atomic Charges

     Atom                 Charge (a.u.)    Spin (a.u.)
  --------------------------------------------------------
      1 C                     1.332962      -0.017156
      2 F                    -0.157704       0.003661
      3 F                    -0.156792       0.003166
      4 F                     0.121149       1.014329
      5 F                    -0.139613      -0.004000
  --------------------------------------------------------
  Sum of atomic charges =     1.000000
  Sum of spin   charges =     1.000000

 -----------------------------------------------------------------
                    Cartesian Multipole Moments
 -----------------------------------------------------------------
    Charge (ESU x 10^10)
                 4.8032
    Dipole Moment (Debye)
         X      -3.5908      Y      10.7533      Z       0.1358
       Tot      11.3378
    Quadrupole Moments (Debye-Ang)
        XX     -18.1052     XY      -7.3731     YY       5.0543
        XZ      -0.6494     YZ      -0.5073     ZZ     -21.1858
    Octopole Moments (Debye-Ang^2)
       XXX      40.9050    XXY     -44.8039    XYY      -1.8631
       YYY     -83.5436    XXZ       1.5281    XYZ      -0.6839
       YYZ      -2.3492    XZZ      13.9738    YZZ     -50.1899
       ZZZ       0.2485
    Hexadecapole Moments (Debye-Ang^3)
      XXXX    -125.4872   XXXY      99.1139   XXYY    -143.1082
      XYYY      64.0380   YYYY    -611.4272   XXXZ      -2.3272
      XXYZ       2.7196   XYYZ      -0.8185   YYYZ      -5.9504
      XXZZ     -32.1669   XYZZ      32.8881   YYZZ    -142.6573
      XZZZ       0.4194   YZZZ       1.9186   ZZZZ     -69.3980
 -----------------------------------------------------------------
Archival summary:
1\1\tp-linux1\SP\HF\6-31G*\41(1+,2)\thomas\WedMar2214:06:242017WedMar2214:06:242017\0\\#,HF,6-31G*,\\1,2\C\F,1,1.21841\F,1,1.22897,2,118.831\F,1,1.22955,2,118.793,3,156.469,0\F,1,1.66046,2,97.6732,3,-101.803,0\\HF=-435.146615\\@

 Total job time:  1245.95s(wall), 1214.98s(cpu) 
 Wed Mar 22 14:06:24 2017

        *************************************************************
        *                                                           *
        *  Thank you very much for using Q-Chem.  Have a nice day.  *
        *                                                           *
        *************************************************************


0 sent ACK to 0 
now end server 0 ... 
cleanup process ... done
