
Running Job 1 of 1 ddtraj1t35.inp
qchem ddtraj1t35.inp_16226.0 /scratch/qchem/qchem16226/ 1
/mnt/software/qchem/bin/mpi/mpirun_qchem -machinefile /mnt/software/qchem/bin/mpi/machines -np 1 /mnt/software/qchem/exe/qcprog.exe ddtraj1t35.inp_16226.0 /scratch/qchem/qchem16226/

Process 0 of 1 is on tp-linux1 - thread support 0
initial socket setup ...start
initial socket setup ...done 
now start server 0 ... 

cmd = ssh tp-linux1 /mnt/software/qchem/bin/get_hostid 2020195190 > /scratch/qchem/qchem16226/lic.dat
                  Welcome to Q-Chem
     A Quantum Leap Into The Future Of Chemistry


 Q-Chem 4.3, Q-Chem, Inc., Pleasanton, CA (2015)

 Y. Shao,  Z. Gan,  E. Epifanovsky,  A. T. B. Gilbert,  M. Wormit,  
 J. Kussmann,  A. W. Lange,  A. Behn,  J. Deng,  X. Feng,  D. Ghosh,  
 M. Goldey,  P. R. Horn,  L. D. Jacobson,  I. Kaliman,  R. Z. Khaliullin,  
 T. Kus,  A. Landau,  J. Liu,  E. I. Proynov,  Y. M. Rhee,  R. M. Richard,  
 M. A. Rohrdanz,  R. P. Steele,  E. J. Sundstrom,  H. L. Woodcock III,  
 P. M. Zimmerman,  D. Zuev,  B. Albrecht,  E. Alguire,  B. Austin,  
 S. A. Baeppler,  G. J. O. Beran,  Y. A. Bernard,  E. Berquist,  
 K. Brandhorst,  K. B. Bravaya,  S. T. Brown,  D. Casanova,  C.-M. Chang,  
 Y. Chen,  S. H. Chien,  K. D. Closser,  D. L. Crittenden,  M. Diedenhofen,  
 R. A. DiStasio Jr.,  H. Do,  A. D. Dutoi,  R. G. Edgar,  P.-T. Fang,  
 S. Fatehi,  Q. Feng,  L. Fusti-Molnar,  A. Ghysels,  
 A. Golubeva-Zadorozhnaya,  J. Gomes,  A. Gunina,  M. W. D. Hanson-Heine,  
 P. H. P. Harbach,  A. W. Hauser,  E. G. Hohenstein,  Z. C. Holden,  K. Hui,  
 T.-C. Jagau,  H. Ji,  B. Kaduk,  K. Khistyaev,  Jaehoon Kim,  Jihan Kim,  
 R. A. King,  P. Klunzinger,  D. Kosenkov,  T. Kowalczyk,  C. M. Krauter,  
 K. U. Lao,  A. Laurent,  K. V. Lawler,  S. Lehtola,  S. V. Levchenko,  
 C. Y. Lin,  Y.-S. Lin,  F. Liu,  E. Livshits,  R. C. Lochan,  A. Luenser,  
 P. Manohar,  S. F. Manzer,  S.-P. Mao,  N. Mardirossian,  A. V. Marenich,  
 L. A. Martinez-Martinez,  S. A. Maurer,  N. J. Mayhall,  K. Nanda,  
 C. M. Oana,  R. Olivares-Amaya,  D. P. O'Neill,  J. A. Parkhill,  
 T. M. Perrine,  R. Peverati,  P. A. Pieniazek,  F. Plasser,  A. Prociuk,  
 D. R. Rehn,  E. Rosta,  N. J. Russ,  N. Sergueev,  S. M. Sharada,  
 S. Sharma,  D. W. Small,  A. Sodt,  T. Stauch,  T. Stein,  D. Stuck,  
 Y.-C. Su,  A. J. W. Thom,  T. Tsuchimochi,  L. Vogt,  O. Vydrov,  T. Wang,  
 M. A. Watson,  J. Wenzel,  A. White,  C. F. Williams,  V. Vanovschi,  
 S. Yeganeh,  S. R. Yost,  Z.-Q. You,  I. Y. Zhang,  X. Zhang,  Y. Zhao,  
 B. R. Brooks,  G. K. L. Chan,  D. M. Chipman,  C. J. Cramer,  
 W. A. Goddard III,  M. S. Gordon,  W. J. Hehre,  A. Klamt,  
 H. F. Schaefer III,  M. W. Schmidt,  C. D. Sherrill,  D. G. Truhlar,  
 A. Warshel,  X. Xu,  A. Aspuru-Guzik,  R. Baer,  A. T. Bell,  N. A. Besley,  
 J.-D. Chai,  A. Dreuw,  B. D. Dunietz,  T. R. Furlani,  S. R. Gwaltney,  
 C.-P. Hsu,  Y. Jung,  J. Kong,  D. S. Lambrecht,  W. Liang,  C. Ochsenfeld,  
 V. A. Rassolov,  L. V. Slipchenko,  J. E. Subotnik,  T. Van Voorhis,  
 J. M. Herbert,  A. I. Krylov,  P. M. W. Gill,  M. Head-Gordon

 Contributors to earlier versions of Q-Chem not listed above: 
 R. D. Adamson,  J. Baker,  E. F. C. Byrd,  A. K. Chakraborty,  C.-L. Cheng,  
 H. Dachsel,  R. J. Doerksen,  G. Hawkins,  A. Heyden,  S. Hirata,  
 G. Kedziora,  F. J. Keil,  C. Kelley,  P. P. Korambath,  W. Kurlancheek,  
 A. M. Lee,  M. S. Lee,  D. Liotard,  I. Lotan,  P. E. Maslen,  N. Nair,  
 D. Neuhauser,  R. Olson,  B. Peters,  J. Ritchie,  N. E. Schultz,  
 N. Shenvi,  A. C. Simmonett,  K. S. Thanthiriwatte,  Q. Wu,  W. Zhang

 Please cite Q-Chem as follows:
 Y. Shao et al., Mol. Phys. 113, 184-215 (2015)
 DOI: 10.1080/00268976.2014.952696

 Q-Chem 4.3.0 for Intel X86 Linux

 Parts of Q-Chem use Armadillo 5.200.1 (Boston Tea Smuggler).
 http://arma.sourceforge.net/

 Q-Chem begins on Wed Mar 22 14:15:53 2017  

Host: 
0

     Scratch files written to /scratch/qchem/qchem16226//
 Nov1815 1189b_ 19540  19532 5443   
 Parallel job on  1  processors
Processing $rem in /mnt/software/qchem/config/preferences.
 MEM_TOTAL  2000 

Checking the input file for inconsistencies... 	...done.

--------------------------------------------------------------
User input:
--------------------------------------------------------------
$comment
XAS calculation for valence excited states for CF4+ using cvs-adc(2) + 6-31G* basis set
job 1 - determination of HF orbitals
$end

$molecule
1 2
6  -0.571746  2.706  -0.14378
9  0.654621  2.548701  -0.084069
9  -1.057152  3.481331  0.690166
9  -1.435709  0.340898  0.779076
9  -1.039704  2.802691  -1.294356
$end

$comment
cvs-adc(2) calculation
$end

$rem
mem_total 3000
mem_static 1500
sym_ignore true
method cvs-adc(2)
basis 6-31G*
ee_singlets 20
cc_rest_occ 5                  !only excitations from the lowest N orbitals
unrestricted  true
max_scf_cycles 200
SCF_ALGORITHM = DIIS_GDM
SCF_CONVERGENCE = 7
THRESH = 10
$end
--------------------------------------------------------------
 ----------------------------------------------------------------
             Standard Nuclear Orientation (Angstroms)
    I     Atom           X                Y                Z
 ----------------------------------------------------------------
    1      C      -0.5717460000     2.7060000000    -0.1437800000
    2      F       0.6546210000     2.5487010000    -0.0840690000
    3      F      -1.0571520000     3.4813310000     0.6901660000
    4      F      -1.4357090000     0.3408980000     0.7790760000
    5      F      -1.0397040000     2.8026910000    -1.2943560000
 ----------------------------------------------------------------
 Nuclear Repulsion Energy =   181.3932435493 hartrees
 There are       21 alpha and       20 beta electrons
 Requested basis set is 6-31G(d)
 There are 20 shells and 75 basis functions

 Total QAlloc Memory Limit   3000 MB
 Mega-Array Size      1467 MB
 MEM_STATIC part      1500 MB

                       Distance Matrix (Angstroms)
             C (  1)   F (  2)   F (  3)   F (  4)
   F (  2)  1.237855
   F (  3)  1.237830  2.097476
   F (  4)  2.681754  3.160521  3.164416
   F (  5)  1.245857  2.097628  2.097423  3.242895
 
 tim1(1): 
  0.000000000000000E+000
 tim1(2): 
  0.000000000000000E+000
 A cutoff of  1.0D-10 yielded    187 shell pairs
 There are      2866 function pairs
 
 -------------------------------------------------------
 OpenMP Integral Computing Module                       
 Release: version 1.0, May 2013, Q-Chem Inc. Pittsburgh 
 -------------------------------------------------------
 Integral Job Info:
 Integral job number is                      11
 Integral operator is                         1
 short-range coefficients                     0
 long-range coefficients              100000000
 Omega coefficients                           0
 if combine SR and LR in K                    0
 Integral screening is                        0
 Integral computing path is                   2
 max size of driver memory is            800000
 size of driver memory is                593474
 size of scratch memory is              2260544
 max col of scratch BK array               1296
 max len of scratch array in speh3          155
 max len of scratch index in speh4           18
 max int batch size is                      520
 min int batch size is                       52
 fixed nKL is                                52
 max L of basis functions is                  2
 order of int derivative is                   0
 number of shells is                         20
 number of basis is                          75
 number of cartesian basis is                75
 number of contracted shell pairs           187
 number of primitive shell pairs            947
 maxK2 (contraction) of shell pair           36
 max number of K2 of shell pair               1
 max number of CS2 of shell pair             32
 max number of PS2 of shell pair            192
 mem total for path MDJ                   18100
 -------------------------------------------------------
 Smallest overlap matrix eigenvalue = 3.41E-03

 Scale SEOQF with 1.000000e+00/1.000000e-01/1.000000e+00

 Standard Electronic Orientation quadrupole field applied
 Nucleus-field energy     =     0.0000000092 hartrees
 Guess from superposition of atomic densities
 Warning:  Energy on first SCF cycle will be non-variational
 An unrestricted Hartree-Fock SCF calculation will be
 performed using Pulay DIIS + Geometric Direct Minimization
 SCF converges when RMS gradient is below 1.0E-07
 ---------------------------------------
  Cycle       Energy         DIIS Error
 ---------------------------------------
    1    -436.2432172709      8.80E-02
    2    -434.9468560214      1.81E-02
    3    -435.1063694317      9.04E-03 Done DIIS. Switching to GDM
    4    -435.1439205306      9.35E-03 Normal BFGS step
    5    -435.1451113854      9.82E-03 Normal BFGS step
    6    -435.1455437882      3.00E-03 Normal BFGS step
    7    -435.1455834286      2.98E-03 Normal BFGS step
    8    -435.1456018954      2.92E-03 Normal BFGS step
    9    -435.1456320104      2.77E-03 Normal BFGS step
   10    -435.1456864922      2.42E-03 Normal BFGS step
   11    -435.1457744847      2.28E-03 Normal BFGS step
   12    -435.1458652388      2.22E-03 Normal BFGS step
   13    -435.1459113107      1.11E-03 Normal BFGS step
   14    -435.1459200419      2.52E-04 Normal BFGS step
   15    -435.1459206606      9.48E-05 Normal BFGS step
   16    -435.1459207203      4.99E-05 Normal BFGS step
   17    -435.1459207321      2.36E-05 Normal BFGS step
   18    -435.1459207356      1.63E-05 Normal BFGS step
   19    -435.1459207374      1.63E-05 Normal BFGS step
   20    -435.1459207380      1.63E-05 Normal BFGS step
   21    -435.1459207390      1.63E-05 Normal BFGS step
   22    -435.1459207407      1.77E-05 Normal BFGS step
   23    -435.1459207451      3.25E-05 Normal BFGS step
   24    -435.1459207560      5.52E-05 Normal BFGS step
   25    -435.1459207848      9.21E-05 Normal BFGS step
   26    -435.1459208597      1.52E-04 Normal BFGS step
   27    -435.1459210524      2.49E-04 Normal BFGS step
   28    -435.1459214322      3.86E-04 Normal BFGS step
   29    -435.1459219732      5.22E-04 Normal BFGS step
   30    -435.1459230938      1.25E-03 Normal BFGS step
   31    -435.1459250844      1.54E-04 Normal BFGS step
   32    -435.1459259017      2.90E-04 Normal BFGS step
   33    -435.1459241165      4.27E-03 Line search: overstep
   34    -435.1459263979      5.41E-04 Normal BFGS step
   35    -435.1459271783      8.52E-04 Normal BFGS step
   36    -435.1459285039      6.38E-04 Normal BFGS step
   37    -435.1459304511      6.37E-04 Normal BFGS step
   38    -435.1459322393      4.25E-04 Dog-leg BFGS step
   39    -435.1458632723      1.62E-02 Line search: overstep
   40    -435.1459329357      4.71E-04 Dog-leg BFGS step
   41    -435.1459334146      1.23E-03 Normal BFGS step
   42    -435.1459345357      2.33E-04 Normal BFGS step
   43    -435.1459351338      2.63E-04 Normal BFGS step
   44    -435.1459298737      5.86E-03 Line search: overstep
   45    -435.1459359240      4.18E-04 Dog-leg BFGS step
   46    -435.1459365206      1.11E-03 Normal BFGS step
   47    -435.1459377247      2.56E-04 Normal BFGS step
   48    -435.1459385243      1.76E-04 Normal BFGS step
   49    -435.1459343128      5.15E-03 Line search: overstep
   50    -435.1459391693      3.20E-04 Dog-leg BFGS step
   51    -435.1459397219      9.48E-04 Normal BFGS step
   52    -435.1459407295      1.09E-04 Normal BFGS step
   53    -435.1459413616      1.00E-04 Normal BFGS step
   54    -435.1459393743      3.61E-03 Line search: overstep
   55    -435.1459417685      2.46E-04 Normal BFGS step
   56    -435.1459420441      6.86E-04 Normal BFGS step
   57    -435.1459425557      8.04E-05 Normal BFGS step
   58    -435.1459427947      8.36E-05 Normal BFGS step
   59    -435.1459424249      1.99E-03 Line search: overstep
   60    -435.1459430426      2.04E-04 Normal BFGS step
   61    -435.1459432510      3.77E-04 Normal BFGS step
   62    -435.1459435341      1.01E-04 Normal BFGS step
   63    -435.1459437304      1.09E-04 Normal BFGS step
   64    -435.1459438847      1.22E-04 Normal BFGS step
   65    -435.1459440214      9.50E-05 Normal BFGS step
   66    -435.1459439428      8.45E-04 Line search: overstep
   67    -435.1459440936      9.02E-05 Normal BFGS step
   68    -435.1459441742      1.29E-04 Normal BFGS step
   69    -435.1459442768      6.28E-05 Normal BFGS step
   70    -435.1459443217      5.36E-05 Normal BFGS step
   71    -435.1459443587      4.00E-05 Normal BFGS step
   72    -435.1459443765      3.01E-05 Normal BFGS step
   73    -435.1459443843      6.35E-05 Normal BFGS step
   74    -435.1459443905      3.93E-05 Normal BFGS step
   75    -435.1459443988      2.40E-05 Normal BFGS step
   76    -435.1459444111      2.98E-05 Normal BFGS step
   77    -435.1459444263      3.88E-05 Normal BFGS step
   78    -435.1459444413      3.13E-05 Normal BFGS step
   79    -435.1459444490      1.32E-05 Normal BFGS step
   80    -435.1459444509      2.41E-06 Normal BFGS step
   81    -435.1459444510      2.27E-06 Normal BFGS step
   82    -435.1459444510      1.15E-06 Normal BFGS step
   83    -435.1459444510      4.82E-07 Normal BFGS step
   84    -435.1459444510      7.58E-08 Convergence criterion met
 ---------------------------------------
 <S^2> = 0.7533
 SCF time:  CPU 10.29 s  wall 15.15 s
 SCF   energy in the final basis set = -435.1459444510
 Total energy in the final basis set = -435.1459444510
================================================================================
|                                                                              |
|                                 A D C  M A N                                 |
|                                                                              |
 ------------------------------------------------------------------------------ 
|                                                                              |
| Components:                                                                  |
|                                                                              |
| - libvmm - 1.2-release                                                       |
|   Authors:                                                                   |
|   Evgeny Epifanovsky, Ilya Kaliman                                           |
|                                                                              |
| - libtensor - 2.4-trunk                                                      |
|   Authors:                                                                   |
|   Evgeny Epifanovsky, Michael Wormit, Dmitry Zuev, Sam Manzer                |
|                                                                              |
| - libwfa - 1.1-beta                                                          |
|   Authors:                                                                   |
|   Felix Plasser, Stefanie Baeppler, Benjamin Thomitzni, Michael Wormit       |
|                                                                              |
| - libadc - 1.0-beta                                                          |
|   Authors:                                                                   |
|   Michael Wormit, Philipp H. P. Harbach, Caroline Krauter, Dirk Rehn,        |
|   Matthias Schneider, Jan Wenzel                                             |
|                                                                              |
| - adcman - 2.4-beta                                                          |
|   Authors:                                                                   |
|   Michael Wormit, Philipp H. P. Harbach, Caroline Krauter, Dirk Rehn,        |
|   Jan Wenzel, Andreas Dreuw                                                  |
|                                                                              |
| Authors of earlier versions of ADCMAN:                                       |
| Andreas Dreuw, Jan Hendrik Starcke, Dirk Rehn, Michael Wormit                |
|                                                                              |
================================================================================

 
 Alpha MOs, Unrestricted
 -- Occupied --                  
-26.740 -26.740 -26.736 -26.631 -11.959  -2.154  -2.046  -2.040
  1 A     2 A     3 A     4 A     5 A     6 A     7 A     8 A                  
 -1.879  -1.318  -1.225  -1.223  -1.172  -1.062  -1.061  -1.046
  9 A    10 A    11 A    12 A    13 A    14 A    15 A    16 A                  
 -1.031  -1.029  -1.011  -0.940  -0.937
 17 A    18 A    19 A    20 A    21 A                                          
 -- Virtual --                   
 -0.268   0.094   0.152   0.154   0.359   0.390   0.395   0.414
 22 A    23 A    24 A    25 A    26 A    27 A    28 A    29 A                  
  0.936   1.015   1.017   1.032   1.067   1.074   1.168   1.213
 30 A    31 A    32 A    33 A    34 A    35 A    36 A    37 A                  
  1.226   1.286   1.288   1.309   1.312   1.316   1.424   1.527
 38 A    39 A    40 A    41 A    42 A    43 A    44 A    45 A                  
  1.643   1.644   1.727   1.742   1.785   1.793   1.806   1.828
 46 A    47 A    48 A    49 A    50 A    51 A    52 A    53 A                  
  1.844   1.866   1.906   1.946   1.975   1.995   2.002   2.083
 54 A    55 A    56 A    57 A    58 A    59 A    60 A    61 A                  
  2.097   2.545   2.552   2.562   2.892   2.896   3.147   3.150
 62 A    63 A    64 A    65 A    66 A    67 A    68 A    69 A                  
  3.191   3.614   4.258   4.531   4.541   4.775
 70 A    71 A    72 A    73 A    74 A    75 A                                  
 
 Beta MOs, Unrestricted
 -- Occupied --                  
-26.740 -26.740 -26.736 -26.582 -11.959  -2.154  -2.046  -2.040
  1 A     2 A     3 A     4 A     5 A     6 A     7 A     8 A                  
 -1.685  -1.318  -1.225  -1.224  -1.172  -1.062  -1.061  -1.032
  9 A    10 A    11 A    12 A    13 A    14 A    15 A    16 A                  
 -1.029  -1.011  -0.885  -0.884
 17 A    18 A    19 A    20 A                                                  
 -- Virtual --                   
 -0.267  -0.126   0.095   0.152   0.158   0.364   0.391   0.397
 21 A    22 A    23 A    24 A    25 A    26 A    27 A    28 A                  
  0.414   0.960   1.015   1.017   1.036   1.075   1.078   1.227
 29 A    30 A    31 A    32 A    33 A    34 A    35 A    36 A                  
  1.247   1.286   1.288   1.305   1.312   1.315   1.373   1.425
 37 A    38 A    39 A    40 A    41 A    42 A    43 A    44 A                  
  1.541   1.643   1.644   1.743   1.746   1.785   1.808   1.817
 45 A    46 A    47 A    48 A    49 A    50 A    51 A    52 A                  
  1.863   1.909   1.933   1.939   1.979   1.987   2.003   2.007
 53 A    54 A    55 A    56 A    57 A    58 A    59 A    60 A                  
  2.083   2.107   2.547   2.552   2.562   2.892   2.896   3.147
 61 A    62 A    63 A    64 A    65 A    66 A    67 A    68 A                  
  3.150   3.193   3.653   4.259   4.531   4.541   4.776
 69 A    70 A    71 A    72 A    73 A    74 A    75 A                          
 

--------------------------------------------------------------------------------
                                   HF Summary                                   
--------------------------------------------------------------------------------
  Energy:                                                 -435.1459444510 a.u.
  Dip. moment [a.u.]:                  [ -54.243899,  181.882556,    0.065374]
  Total dipole [Debye]:                                             482.421088
  <r^2> [a.u.]:                        [ 171.474701, 1002.446333,  104.871181]
  Total <r^2> [a.u.]:                                              1278.792215
--------------------------------------------------------------------------------

--------------------------------------------------------------------------------
                                 MP(2) Summary                                  
--------------------------------------------------------------------------------
  Energy contribution:                                      -0.7494417841 a.u.
  Total energy:                                           -435.8953862351 a.u.
  Dip. moment [a.u.]:                  [ -54.293721,  181.754140,    0.109960]
  Total dipole [Debye]:                                             482.144592
  <r^2> [a.u.]:                        [ 171.306439, 1001.092232,  104.551324]
  Total <r^2> [a.u.]:                                              1276.949995
--------------------------------------------------------------------------------
  Starting Davidson ... 
--------------------------------------------------------------------------------
   It NVec Conv  Avg. Norm  Max. Norm  Conv. states           Remark
--------------------------------------------------------------------------------
        20    0  2.064e-01  1.127e+00 10.9402 n n n n n n n n Guess.
    1   40    0  7.110e-02  8.066e-01 10.7731 n n n n n n n n 
    2   60    0  2.915e-02  3.981e-01 10.7718 n n n n n n n n 
    3   80    0  5.550e-03  6.568e-02 10.7717 n n n n n n n n 
    4  100    0  3.074e-03  3.705e-02 10.7717 n n n n n n n n 
    5   40    0  2.297e-03  2.805e-02 10.7717 n n n n n n n n Subspace collapsed.
    6   60    0  3.873e-03  5.942e-02 10.7717 n n n n n n n n 
    7   80    0  2.485e-03  3.188e-02 10.7717 n n n n n n n n 
    8  100    2  2.511e-03  2.961e-02 10.7717 y y n n n n n n 
    9   40    6  1.281e-03  1.701e-02 10.7717 y y n n y y n y Subspace collapsed.
   10   60    9  1.109e-03  1.437e-02 10.7717 y y y y y y y y 
   11   80    9  5.760e-04  6.794e-03 10.7717 y y y y y y y y 
   12  100   12  7.410e-04  9.427e-03 10.7717 y y y y y y y y 
   13   40   15  4.585e-04  5.825e-03 10.7717 y y y y y y y y Subspace collapsed.
   14   60   17  6.578e-04  8.585e-03 10.7717 y y y y y y y y 
   15   80   17  6.516e-04  1.112e-02 10.7717 y y y y y y y y 
   16  100   17  9.430e-04  1.711e-02 10.7717 y y y y y y y y 
   17   38   17  5.735e-04  1.088e-02 10.7717 y y y y y y y y Subspace collapsed.
   18   56   17  4.593e-04  8.320e-03 10.7717 y y y y y y y y 
   19   57   17  4.602e-04  8.344e-03 10.7717 y y y y y y y y 
   20   58   17  4.601e-04  8.347e-03 10.7717 y y y y y y y y 
   21   59   17  4.598e-04  8.344e-03 10.7717 y y y y y y y y 
   22   59   17  4.598e-04  8.344e-03 10.7717 y y y y y y y y 
   23   61   17  4.597e-04  8.342e-03 10.7717 y y y y y y y y 
   24   61   17  4.597e-04  8.342e-03 10.7717 y y y y y y y y 
   25   61   17  4.597e-04  8.342e-03 10.7717 y y y y y y y y 
   26   81   17  3.002e-04  5.657e-03 10.7717 y y y y y y y y 
   27   81   17  3.002e-04  5.657e-03 10.7717 y y y y y y y y 
   28   82   17  3.005e-04  5.660e-03 10.7717 y y y y y y y y 
   29   83   17  3.000e-04  5.649e-03 10.7717 y y y y y y y y 
   30   84   17  3.006e-04  5.661e-03 10.7717 y y y y y y y y 
   31   85   17  3.005e-04  5.660e-03 10.7717 y y y y y y y y 
   32   86   17  2.994e-04  5.636e-03 10.7717 y y y y y y y y 
   33   88   17  2.989e-04  5.626e-03 10.7717 y y y y y y y y 
   34   90   16  3.018e-04  5.684e-03 10.7717 n y y y y y y y 
   35   93    9  3.025e-04  5.685e-03 10.7717 n n y y y y n y 
   36   97    2  3.237e-04  5.905e-03 10.7717 n n n n y y n n 
   37  100    0  1.386e-03  2.623e-02 10.7716 n n n n n n n n 
   38   40    0  3.320e-04  4.849e-03 10.7717 n n n n n n n n Subspace collapsed.
   39   60    2  4.849e-04  9.427e-03 10.7717 n n n n y y n n 
   40   80    2  6.027e-04  1.187e-02 10.7717 n n y n n y n n 
   41  100    0  1.041e-03  2.072e-02 10.7717 n n n n n n n n 
   42   40    4  4.527e-04  9.003e-03 10.7717 n n y n n n y n Subspace collapsed.
   43   60   13  3.893e-04  7.755e-03 10.7717 n y y y y y y y 
   44   80   17  2.757e-04  5.496e-03 10.7717 y y y y y y y y 
   45  100   17  3.092e-04  6.162e-03 10.7717 y y y y y y y y 
   46   40   17  1.786e-04  3.561e-03 10.7717 y y y y y y y y Subspace collapsed.
   47   60   17  2.744e-04  5.472e-03 10.7717 y y y y y y y y 
   48   80   17  3.297e-04  6.578e-03 10.7717 y y y y y y y y 
   49  100   17  4.880e-04  9.731e-03 10.7717 y y y y y y y y 
   50   25   17  4.584e-04  9.141e-03 10.7717 y y y y y y y y Subspace collapsed.
   51   26   17  4.603e-04  9.178e-03 10.7717 y y y y y y y y 
   52   28   17  4.632e-04  9.237e-03 10.7717 y y y y y y y y 
   53   28   17  4.632e-04  9.237e-03 10.7717 y y y y y y y y 
   54   48   17  2.655e-04  5.295e-03 10.7717 y y y y y y y y 
   55   48   17  2.655e-04  5.295e-03 10.7717 y y y y y y y y 
   56   49   17  2.634e-04  5.252e-03 10.7717 y y y y y y y y 
   57   49   17  2.634e-04  5.252e-03 10.7717 y y y y y y y y 
   58   49   17  2.634e-04  5.252e-03 10.7717 y y y y y y y y 
   59   69   17  2.274e-04  4.535e-03 10.7717 y y y y y y y y 
--------------------------------------------------------------------------------
  Davidson Summary: 
 ------------------------------------------------------------
  State  0: excitation energy =  10.7717 a.u.   (converged)
  State  1: excitation energy =  10.8431 a.u.   (converged)
  State  2: excitation energy =  11.1825 a.u.   (converged)
  State  3: excitation energy =  11.1884 a.u.   (converged)
  State  4: excitation energy =  11.1921 a.u.   (converged)
  State  5: excitation energy =  11.2058 a.u.   (converged)
  State  6: excitation energy =  11.2533 a.u.   (converged)
  State  7: excitation energy =  11.2623 a.u.   (converged)
  State  8: excitation energy =  11.2692 a.u.   (converged)
  State  9: excitation energy =  11.5490 a.u.   (converged)
  State 10: excitation energy =  11.5666 a.u.   (converged)
  State 11: excitation energy =  11.5692 a.u.   (converged)
  State 12: excitation energy =  11.5711 a.u.   (converged)
  State 13: excitation energy =  11.5858 a.u.   (converged)
  State 14: excitation energy =  11.5871 a.u.   (converged)
  State 15: excitation energy =  11.5906 a.u.   (converged)
  State 16: excitation energy =  11.6051 a.u.   (converged)
  State 17: excitation energy =  12.2240 a.u.   (not converged)
  State 18: excitation energy =  12.2262 a.u.   (not converged)
  State 19: excitation energy =  12.2300 a.u.   (not converged)
 ------------------------------------------------------------


--------------------------------------------------------------------------------
                             Excited State Summary
--------------------------------------------------------------------------------

  Excited state  1 (A)                                             [converged]
  ----------------------------------------------------------------------------
  Term symbol:  2 (-) A                                     R^2 =  8.61523e-14

  Total energy:                                           -425.1236794519 a.u.
  Excitation energy:                                             293.113049 eV

  Osc. strength:                                                      0.000001
  Trans. dip. moment [a.u.]:           [   0.000133,    0.000340,   -0.000115]
  <i|r^2|0> [a.u.]:                    [  -0.000309,    0.003421,    0.000041]

  V1^2 = 0.9566, V2^2 = 0.0434

  Important amplitudes:
     core i     occ j      vir a      vir b          v   
    ------------------------------------------------------
     5 (A) A              22 (A) A                 0.6589
     5 (A) B              21 (A) B                -0.6542
    ------------------------------------------------------
  ----------------------------------------------------------------------------


  Excited state  2 (A)                                             [converged]
  ----------------------------------------------------------------------------
  Term symbol:  3 (-) A                                     R^2 =  9.21398e-14

  Total energy:                                           -425.0523141836 a.u.
  Excitation energy:                                             295.054996 eV

  Osc. strength:                                                      0.094064
  Trans. dip. moment [a.u.]:           [   0.039660,    0.101297,   -0.034328]
  <i|r^2|0> [a.u.]:                    [  -0.094063,    1.023975,    0.010445]

  V1^2 = 0.9515, V2^2 = 0.0485

  Important amplitudes:
     core i     occ j      vir a      vir b          v   
    ------------------------------------------------------
     5 (A) B              21 (A) B                 0.6693
     5 (A) A              22 (A) A                 0.6644
    ------------------------------------------------------
  ----------------------------------------------------------------------------


  Excited state  3 (A)                                             [converged]
  ----------------------------------------------------------------------------
  Term symbol:  4 (-) A                                     R^2 =  8.94694e-14

  Total energy:                                           -424.7128676866 a.u.
  Excitation energy:                                             304.291805 eV

  Osc. strength:                                                      0.000000
  Trans. dip. moment [a.u.]:           [  -0.000071,   -0.000108,    0.000001]
  <i|r^2|0> [a.u.]:                    [   0.000156,   -0.001115,   -0.000003]

  V1^2 = 0.9388, V2^2 = 0.0612

  Important amplitudes:
     core i     occ j      vir a      vir b          v   
    ------------------------------------------------------
     5 (A) A              23 (A) A                -0.4529
     5 (A) B              23 (A) B                 0.4519
    ------------------------------------------------------
  ----------------------------------------------------------------------------


  Excited state  4 (A)                                             [converged]
  ----------------------------------------------------------------------------
  Term symbol:  5 (-) A                                     R^2 =  3.66379e-13

  Total energy:                                           -424.7069680072 a.u.
  Excitation energy:                                             304.452344 eV

  Osc. strength:                                                      0.000000
  Trans. dip. moment [a.u.]:           [  -0.000006,    0.000120,   -0.000071]
  <i|r^2|0> [a.u.]:                    [   0.000019,    0.001242,    0.000038]

  V1^2 = 0.9417, V2^2 = 0.0583

  Important amplitudes:
     core i     occ j      vir a      vir b          v   
    ------------------------------------------------------
     5 (A) B              24 (A) B                -0.4029
     5 (A) A              24 (A) A                 0.4023
    ------------------------------------------------------
  ----------------------------------------------------------------------------


  Excited state  5 (A)                                             [converged]
  ----------------------------------------------------------------------------
  Term symbol:  6 (-) A                                     R^2 =  1.04548e-12

  Total energy:                                           -424.7032623291 a.u.
  Excitation energy:                                             304.553180 eV

  Osc. strength:                                                      0.000021
  Trans. dip. moment [a.u.]:           [  -0.001383,    0.000738,    0.000574]
  <i|r^2|0> [a.u.]:                    [   0.003123,    0.007465,   -0.000361]

  V1^2 = 0.9432, V2^2 = 0.0568

  Important amplitudes:
     core i     occ j      vir a      vir b          v   
    ------------------------------------------------------
     5 (A) B              25 (A) B                -0.5030
     5 (A) A              25 (A) A                 0.4898
    ------------------------------------------------------
  ----------------------------------------------------------------------------


  Excited state  6 (A)                                             [converged]
  ----------------------------------------------------------------------------
  Term symbol:  7 (-) A                                     R^2 =  4.00047e-13

  Total energy:                                           -424.6895964691 a.u.
  Excitation energy:                                             304.925047 eV

  Osc. strength:                                                      0.000406
  Trans. dip. moment [a.u.]:           [   0.006113,   -0.003259,   -0.002521]
  <i|r^2|0> [a.u.]:                    [  -0.013774,   -0.032988,    0.001594]

  V1^2 = 0.8598, V2^2 = 0.1402

  Important amplitudes:
     core i     occ j      vir a      vir b          v   
    ------------------------------------------------------
     5 (A) B              22 (A) B                 0.8759
     5 (A) A              25 (A) A                 0.1869
    ------------------------------------------------------
  ----------------------------------------------------------------------------


  Excited state  7 (A)                                             [converged]
  ----------------------------------------------------------------------------
  Term symbol:  8 (-) A                                     R^2 =  2.20599e-13

  Total energy:                                           -424.6420487028 a.u.
  Excitation energy:                                             306.218888 eV

  Osc. strength:                                                      0.031038
  Trans. dip. moment [a.u.]:           [   0.002083,    0.042886,   -0.047892]
  <i|r^2|0> [a.u.]:                    [   0.012111,    0.462982,    0.039404]

  V1^2 = 0.9189, V2^2 = 0.0811

  Important amplitudes:
     core i     occ j      vir a      vir b          v   
    ------------------------------------------------------
     5 (A) B              23 (A) B                 0.6052
     5 (A) A              23 (A) A                 0.6038
    ------------------------------------------------------
  ----------------------------------------------------------------------------


  Excited state  8 (A)                                             [converged]
  ----------------------------------------------------------------------------
  Term symbol:  9 (-) A                                     R^2 =  3.74163e-13

  Total energy:                                           -424.6330608877 a.u.
  Excitation energy:                                             306.463459 eV

  Osc. strength:                                                      0.106812
  Trans. dip. moment [a.u.]:           [   0.059697,    0.028140,    0.099350]
  <i|r^2|0> [a.u.]:                    [  -0.128559,    0.292950,   -0.043550]

  V1^2 = 0.9403, V2^2 = 0.0597

  Important amplitudes:
     core i     occ j      vir a      vir b          v   
    ------------------------------------------------------
     5 (A) A              24 (A) A                 0.5465
     5 (A) B              24 (A) B                 0.5462
    ------------------------------------------------------
  ----------------------------------------------------------------------------


  Excited state  9 (A)                                             [converged]
  ----------------------------------------------------------------------------
  Term symbol:  10 (-) A                                    R^2 =  1.30685e-12

  Total energy:                                           -424.6261707479 a.u.
  Excitation energy:                                             306.650949 eV

  Osc. strength:                                                      0.113720
  Trans. dip. moment [a.u.]:           [   0.100625,   -0.054712,   -0.044924]
  <i|r^2|0> [a.u.]:                    [  -0.224776,   -0.555975,    0.028112]

  V1^2 = 0.9417, V2^2 = 0.0583

  Important amplitudes:
     core i     occ j      vir a      vir b          v   
    ------------------------------------------------------
     5 (A) B              25 (A) B                 0.5686
     5 (A) A              25 (A) A                 0.5594
    ------------------------------------------------------
  ----------------------------------------------------------------------------


  Excited state 10 (A)                                             [converged]
  ----------------------------------------------------------------------------
  Term symbol:  11 (-) A                                    R^2 =  1.45696e-11

  Total energy:                                           -424.3464193591 a.u.
  Excitation energy:                                             314.263371 eV

  Osc. strength:                                                      0.000032
  Trans. dip. moment [a.u.]:           [  -0.000712,   -0.001796,    0.000630]
  <i|r^2|0> [a.u.]:                    [   0.001990,   -0.017933,    0.000109]

  V1^2 = 0.9133, V2^2 = 0.0867

  Important amplitudes:
     core i     occ j      vir a      vir b          v   
    ------------------------------------------------------
     5 (A) A              29 (A) A                 0.5527
     5 (A) B              29 (A) B                -0.5508
    ------------------------------------------------------
  ----------------------------------------------------------------------------


  Excited state 11 (A)                                             [converged]
  ----------------------------------------------------------------------------
  Term symbol:  12 (-) A                                    R^2 =  4.75103e-11

  Total energy:                                           -424.3288133572 a.u.
  Excitation energy:                                             314.742455 eV

  Osc. strength:                                                      0.000042
  Trans. dip. moment [a.u.]:           [  -0.001077,   -0.001970,    0.000649]
  <i|r^2|0> [a.u.]:                    [   0.002765,   -0.019735,    0.000072]

  V1^2 = 0.8963, V2^2 = 0.1037

  Important amplitudes:
     core i     occ j      vir a      vir b          v   
    ------------------------------------------------------
     5 (A) A              26 (A) A                 0.4805
     5 (A) B              26 (A) B                -0.4435
    ------------------------------------------------------
  ----------------------------------------------------------------------------


  Excited state 12 (A)                                             [converged]
  ----------------------------------------------------------------------------
  Term symbol:  13 (-) A                                    R^2 =  1.45487e-10

  Total energy:                                           -424.3261872489 a.u.
  Excitation energy:                                             314.813915 eV

  Osc. strength:                                                      0.000278
  Trans. dip. moment [a.u.]:           [  -0.004985,    0.002630,    0.002083]
  <i|r^2|0> [a.u.]:                    [   0.010893,    0.026896,   -0.001250]

  V1^2 = 0.8962, V2^2 = 0.1038

  Important amplitudes:
     core i     occ j      vir a      vir b          v   
    ------------------------------------------------------
     5 (A) A              28 (A) A                -0.5592
     5 (A) B              28 (A) B                 0.4649
    ------------------------------------------------------
  ----------------------------------------------------------------------------


  Excited state 13 (A)                                             [converged]
  ----------------------------------------------------------------------------
  Term symbol:  14 (-) A                                    R^2 =  5.62584e-11

  Total energy:                                           -424.3242764334 a.u.
  Excitation energy:                                             314.865911 eV

  Osc. strength:                                                      0.000065
  Trans. dip. moment [a.u.]:           [   0.000799,    0.002702,   -0.000675]
  <i|r^2|0> [a.u.]:                    [  -0.002200,    0.027190,   -0.000118]

  V1^2 = 0.8967, V2^2 = 0.1033

  Important amplitudes:
     core i     occ j      vir a      vir b          v   
    ------------------------------------------------------
     5 (A) B              27 (A) B                 0.4392
     5 (A) A              27 (A) A                -0.4362
    ------------------------------------------------------
  ----------------------------------------------------------------------------


  Excited state 14 (A)                                             [converged]
  ----------------------------------------------------------------------------
  Term symbol:  15 (-) A                                    R^2 =  2.57683e-11

  Total energy:                                           -424.3095542892 a.u.
  Excitation energy:                                             315.266521 eV

  Osc. strength:                                                      0.034642
  Trans. dip. moment [a.u.]:           [  -0.039525,   -0.031373,   -0.044029]
  <i|r^2|0> [a.u.]:                    [   0.086040,   -0.320977,    0.022987]

  V1^2 = 0.9000, V2^2 = 0.1000

  Important amplitudes:
     core i     occ j      vir a      vir b          v   
    ------------------------------------------------------
     5 (A) A              27 (A) A                -0.4987
     5 (A) B              27 (A) B                -0.4905
    ------------------------------------------------------
  ----------------------------------------------------------------------------


  Excited state 15 (A)                                             [converged]
  ----------------------------------------------------------------------------
  Term symbol:  16 (-) A                                    R^2 =  5.23086e-11

  Total energy:                                           -424.3082441111 a.u.
  Excitation energy:                                             315.302173 eV

  Osc. strength:                                                      0.034027
  Trans. dip. moment [a.u.]:           [   0.053141,   -0.029492,   -0.026668]
  <i|r^2|0> [a.u.]:                    [  -0.116004,   -0.301616,    0.015643]

  V1^2 = 0.8995, V2^2 = 0.1005

  Important amplitudes:
     core i     occ j      vir a      vir b          v   
    ------------------------------------------------------
     5 (A) B              28 (A) B                 0.6040
     5 (A) A              28 (A) A                 0.5114
    ------------------------------------------------------
  ----------------------------------------------------------------------------


  Excited state 16 (A)                                             [converged]
  ----------------------------------------------------------------------------
  Term symbol:  17 (-) A                                    R^2 =  1.65212e-10

  Total energy:                                           -424.3047418271 a.u.
  Excitation energy:                                             315.397475 eV

  Osc. strength:                                                      0.032399
  Trans. dip. moment [a.u.]:           [  -0.008309,   -0.050656,    0.039470]
  <i|r^2|0> [a.u.]:                    [   0.011542,   -0.524999,   -0.027305]

  V1^2 = 0.8978, V2^2 = 0.1022

  Important amplitudes:
     core i     occ j      vir a      vir b          v   
    ------------------------------------------------------
     5 (A) B              26 (A) B                 0.4953
     5 (A) A              26 (A) A                 0.4364
    ------------------------------------------------------
  ----------------------------------------------------------------------------


  Excited state 17 (A)                                             [converged]
  ----------------------------------------------------------------------------
  Term symbol:  18 (-) A                                    R^2 =  1.51003e-10

  Total energy:                                           -424.2903004574 a.u.
  Excitation energy:                                             315.790444 eV

  Osc. strength:                                                      0.005835
  Trans. dip. moment [a.u.]:           [   0.005784,    0.022908,   -0.013999]
  <i|r^2|0> [a.u.]:                    [  -0.036495,    0.210555,   -0.016676]

  V1^2 = 0.9147, V2^2 = 0.0853

  Important amplitudes:
     core i     occ j      vir a      vir b          v   
    ------------------------------------------------------
     5 (A) B              29 (A) B                -0.5526
     5 (A) A              29 (A) A                -0.5306
    ------------------------------------------------------
  ----------------------------------------------------------------------------


  Excited state 18 (A)                                         [not converged]
  ----------------------------------------------------------------------------
  Term symbol:  19 (-) A                                    R^2 =  4.53454e-03

  Total energy:                                           -423.6713644038 a.u.
  Excitation energy:                                             332.632551 eV


  V1^2 = 0.8711, V2^2 = 0.1289

  Important amplitudes:
     core i     occ j      vir a      vir b          v   
    ------------------------------------------------------
     5 (A) B              31 (A) B                -0.6291
     5 (A) A              31 (A) A                 0.4436
    ------------------------------------------------------
  ----------------------------------------------------------------------------


  Excited state 19 (A)                                         [not converged]
  ----------------------------------------------------------------------------
  Term symbol:  20 (-) A                                    R^2 =  1.51292e-04

  Total energy:                                           -423.6692333756 a.u.
  Excitation energy:                                             332.690539 eV


  V1^2 = 0.8717, V2^2 = 0.1283

  Important amplitudes:
     core i     occ j      vir a      vir b          v   
    ------------------------------------------------------
     5 (A) A              32 (A) A                -0.5177
     5 (A) B              32 (A) B                 0.5166
    ------------------------------------------------------
  ----------------------------------------------------------------------------


  Excited state 20 (A)                                         [not converged]
  ----------------------------------------------------------------------------
  Term symbol:  21 (-) A                                    R^2 =  3.08539e-04

  Total energy:                                           -423.6654227973 a.u.
  Excitation energy:                                             332.794230 eV


  V1^2 = 0.8716, V2^2 = 0.1284

  Important amplitudes:
     core i     occ j      vir a      vir b          v   
    ------------------------------------------------------
     5 (A) B              32 (A) B                -0.4952
     5 (A) A              32 (A) A                -0.4767
    ------------------------------------------------------
  ----------------------------------------------------------------------------


--------------------------------------------------------------------------------
  Time of ADC calculation:  CPU 1738.91 s  wall 1763.96 s
================================================================================
 
 --------------------------------------------------------------
 
                    Orbital Energies (a.u.)
 --------------------------------------------------------------
 
 Alpha MOs
 -- Occupied --
-26.740 -26.740 -26.736 -26.631 -11.959  -2.154  -2.046  -2.040
 -1.879  -1.318  -1.225  -1.223  -1.172  -1.062  -1.061  -1.046
 -1.031  -1.029  -1.011  -0.940  -0.937
 -- Virtual --
 -0.268   0.094   0.152   0.154   0.359   0.390   0.395   0.414
  0.936   1.015   1.017   1.032   1.067   1.074   1.168   1.213
  1.226   1.286   1.288   1.309   1.312   1.316   1.424   1.527
  1.643   1.644   1.727   1.742   1.785   1.793   1.806   1.828
  1.844   1.866   1.906   1.946   1.975   1.995   2.002   2.083
  2.097   2.545   2.552   2.562   2.892   2.896   3.147   3.150
  3.191   3.614   4.258   4.531   4.541   4.775
 
 Beta MOs
 -- Occupied --
-26.740 -26.740 -26.736 -26.582 -11.959  -2.154  -2.046  -2.040
 -1.685  -1.318  -1.225  -1.224  -1.172  -1.062  -1.061  -1.032
 -1.029  -1.011  -0.885  -0.884
 -- Virtual --
 -0.267  -0.126   0.095   0.152   0.158   0.364   0.391   0.397
  0.414   0.960   1.015   1.017   1.036   1.075   1.078   1.227
  1.247   1.286   1.288   1.305   1.312   1.315   1.373   1.425
  1.541   1.643   1.644   1.743   1.746   1.785   1.808   1.817
  1.863   1.909   1.933   1.939   1.979   1.987   2.003   2.007
  2.083   2.107   2.547   2.552   2.562   2.892   2.896   3.147
  3.150   3.193   3.653   4.259   4.531   4.541   4.776
 --------------------------------------------------------------
 
          Ground-State Mulliken Net Atomic Charges

     Atom                 Charge (a.u.)    Spin (a.u.)
  --------------------------------------------------------
      1 C                     1.253476      -0.005041
      2 F                    -0.093924      -0.000342
      3 F                    -0.093823      -0.000341
      4 F                     0.036076       1.006049
      5 F                    -0.101806      -0.000326
  --------------------------------------------------------
  Sum of atomic charges =     1.000000
  Sum of spin   charges =     1.000000

 -----------------------------------------------------------------
                    Cartesian Multipole Moments
 -----------------------------------------------------------------
    Charge (ESU x 10^10)
                 4.8032
    Dipole Moment (Debye)
         X      -3.0132      Y      12.2505      Z      -0.3839
       Tot      12.6215
    Quadrupole Moments (Debye-Ang)
        XX     -18.5469     XY      -7.2896     YY      12.0202
        XZ      -0.2790     YZ      -1.5618     ZZ     -20.9010
    Octopole Moments (Debye-Ang^2)
       XXX      41.7542    XXY     -44.4391    XYY      -4.2427
       YYY     -58.1236    XXZ       1.4130    XYZ       0.2042
       YYZ      -4.3402    XZZ      13.6233    YZZ     -48.7239
       ZZZ      -0.5575
    Hexadecapole Moments (Debye-Ang^3)
      XXXX    -135.1675   XXXY      85.2889   XXYY    -155.2880
      XYYY      35.5339   YYYY    -608.2980   XXXZ       2.9217
      XXYZ       7.5299   XYYZ       2.9711   YYYZ       8.8297
      XXZZ     -35.3479   XYZZ      26.4681   YYZZ    -153.8318
      XZZZ       7.3107   YZZZ      17.6100   ZZZZ     -82.3574
 -----------------------------------------------------------------
Archival summary:
1\1\tp-linux1\SP\HF\6-31G*\41(1+,2)\thomas\WedMar2214:45:342017WedMar2214:45:342017\0\\#,HF,6-31G*,\\1,2\C\F,1,1.23783\F,1,1.23785,2,115.823\F,1,1.24586,2,115.232,3,138.754,0\F,1,2.68175,2,101.2,3,-108.153,0\\HF=-435.145944\\@

 Total job time:  1781.00s(wall), 1750.89s(cpu) 
 Wed Mar 22 14:45:34 2017

        *************************************************************
        *                                                           *
        *  Thank you very much for using Q-Chem.  Have a nice day.  *
        *                                                           *
        *************************************************************


0 sent ACK to 0 
now end server 0 ... 
cleanup process ... done
