
Running Job 1 of 1 ddtraj1t17.inp
qchem ddtraj1t17.inp_13157.0 /scratch/qchem/qchem13157/ 1
/mnt/software/qchem/bin/mpi/mpirun_qchem -machinefile /mnt/software/qchem/bin/mpi/machines -np 1 /mnt/software/qchem/exe/qcprog.exe ddtraj1t17.inp_13157.0 /scratch/qchem/qchem13157/

Process 0 of 1 is on tp-linux1 - thread support 0
initial socket setup ...start
initial socket setup ...done 
now start server 0 ... 

cmd = ssh tp-linux1 /mnt/software/qchem/bin/get_hostid 1028884284 > /scratch/qchem/qchem13157/lic.dat
                  Welcome to Q-Chem
     A Quantum Leap Into The Future Of Chemistry


 Q-Chem 4.3, Q-Chem, Inc., Pleasanton, CA (2015)

 Y. Shao,  Z. Gan,  E. Epifanovsky,  A. T. B. Gilbert,  M. Wormit,  
 J. Kussmann,  A. W. Lange,  A. Behn,  J. Deng,  X. Feng,  D. Ghosh,  
 M. Goldey,  P. R. Horn,  L. D. Jacobson,  I. Kaliman,  R. Z. Khaliullin,  
 T. Kus,  A. Landau,  J. Liu,  E. I. Proynov,  Y. M. Rhee,  R. M. Richard,  
 M. A. Rohrdanz,  R. P. Steele,  E. J. Sundstrom,  H. L. Woodcock III,  
 P. M. Zimmerman,  D. Zuev,  B. Albrecht,  E. Alguire,  B. Austin,  
 S. A. Baeppler,  G. J. O. Beran,  Y. A. Bernard,  E. Berquist,  
 K. Brandhorst,  K. B. Bravaya,  S. T. Brown,  D. Casanova,  C.-M. Chang,  
 Y. Chen,  S. H. Chien,  K. D. Closser,  D. L. Crittenden,  M. Diedenhofen,  
 R. A. DiStasio Jr.,  H. Do,  A. D. Dutoi,  R. G. Edgar,  P.-T. Fang,  
 S. Fatehi,  Q. Feng,  L. Fusti-Molnar,  A. Ghysels,  
 A. Golubeva-Zadorozhnaya,  J. Gomes,  A. Gunina,  M. W. D. Hanson-Heine,  
 P. H. P. Harbach,  A. W. Hauser,  E. G. Hohenstein,  Z. C. Holden,  K. Hui,  
 T.-C. Jagau,  H. Ji,  B. Kaduk,  K. Khistyaev,  Jaehoon Kim,  Jihan Kim,  
 R. A. King,  P. Klunzinger,  D. Kosenkov,  T. Kowalczyk,  C. M. Krauter,  
 K. U. Lao,  A. Laurent,  K. V. Lawler,  S. Lehtola,  S. V. Levchenko,  
 C. Y. Lin,  Y.-S. Lin,  F. Liu,  E. Livshits,  R. C. Lochan,  A. Luenser,  
 P. Manohar,  S. F. Manzer,  S.-P. Mao,  N. Mardirossian,  A. V. Marenich,  
 L. A. Martinez-Martinez,  S. A. Maurer,  N. J. Mayhall,  K. Nanda,  
 C. M. Oana,  R. Olivares-Amaya,  D. P. O'Neill,  J. A. Parkhill,  
 T. M. Perrine,  R. Peverati,  P. A. Pieniazek,  F. Plasser,  A. Prociuk,  
 D. R. Rehn,  E. Rosta,  N. J. Russ,  N. Sergueev,  S. M. Sharada,  
 S. Sharma,  D. W. Small,  A. Sodt,  T. Stauch,  T. Stein,  D. Stuck,  
 Y.-C. Su,  A. J. W. Thom,  T. Tsuchimochi,  L. Vogt,  O. Vydrov,  T. Wang,  
 M. A. Watson,  J. Wenzel,  A. White,  C. F. Williams,  V. Vanovschi,  
 S. Yeganeh,  S. R. Yost,  Z.-Q. You,  I. Y. Zhang,  X. Zhang,  Y. Zhao,  
 B. R. Brooks,  G. K. L. Chan,  D. M. Chipman,  C. J. Cramer,  
 W. A. Goddard III,  M. S. Gordon,  W. J. Hehre,  A. Klamt,  
 H. F. Schaefer III,  M. W. Schmidt,  C. D. Sherrill,  D. G. Truhlar,  
 A. Warshel,  X. Xu,  A. Aspuru-Guzik,  R. Baer,  A. T. Bell,  N. A. Besley,  
 J.-D. Chai,  A. Dreuw,  B. D. Dunietz,  T. R. Furlani,  S. R. Gwaltney,  
 C.-P. Hsu,  Y. Jung,  J. Kong,  D. S. Lambrecht,  W. Liang,  C. Ochsenfeld,  
 V. A. Rassolov,  L. V. Slipchenko,  J. E. Subotnik,  T. Van Voorhis,  
 J. M. Herbert,  A. I. Krylov,  P. M. W. Gill,  M. Head-Gordon

 Contributors to earlier versions of Q-Chem not listed above: 
 R. D. Adamson,  J. Baker,  E. F. C. Byrd,  A. K. Chakraborty,  C.-L. Cheng,  
 H. Dachsel,  R. J. Doerksen,  G. Hawkins,  A. Heyden,  S. Hirata,  
 G. Kedziora,  F. J. Keil,  C. Kelley,  P. P. Korambath,  W. Kurlancheek,  
 A. M. Lee,  M. S. Lee,  D. Liotard,  I. Lotan,  P. E. Maslen,  N. Nair,  
 D. Neuhauser,  R. Olson,  B. Peters,  J. Ritchie,  N. E. Schultz,  
 N. Shenvi,  A. C. Simmonett,  K. S. Thanthiriwatte,  Q. Wu,  W. Zhang

 Please cite Q-Chem as follows:
 Y. Shao et al., Mol. Phys. 113, 184-215 (2015)
 DOI: 10.1080/00268976.2014.952696

 Q-Chem 4.3.0 for Intel X86 Linux

 Parts of Q-Chem use Armadillo 5.200.1 (Boston Tea Smuggler).
 http://arma.sourceforge.net/

 Q-Chem begins on Wed Mar 22 17:34:40 2017  

Host: 
0

     Scratch files written to /scratch/qchem/qchem13157//
 Nov1815 1189b_ 19540  19532 5443   
 Parallel job on  1  processors
Processing $rem in /mnt/software/qchem/config/preferences.
 MEM_TOTAL  2000 

Checking the input file for inconsistencies... 	...done.

--------------------------------------------------------------
User input:
--------------------------------------------------------------
$comment
XAS calculation for valence excited states for CF4+ using cvs-adc(2) + 6-31G* basis set
job 1 - determination of HF orbitals
$end

$molecule
1 2
6  -0.471946  2.951731  -0.220355
9  0.579789  2.317444  0.006249
9  -1.145366  3.256068  0.786985
9  -1.236847  0.89779  0.552738
9  -1.138556  2.547107  -1.206789
$end

$comment
cvs-adc(2) calculation
$end

$rem
mem_total 3000
mem_static 1500
sym_ignore true
method cvs-adc(2)
basis 6-31G*
ee_singlets 20
cc_rest_occ 5                  !only excitations from the lowest N orbitals
unrestricted  true
max_scf_cycles 200
SCF_ALGORITHM = DIIS_GDM
SCF_CONVERGENCE = 7
THRESH = 10
$end
--------------------------------------------------------------
 ----------------------------------------------------------------
             Standard Nuclear Orientation (Angstroms)
    I     Atom           X                Y                Z
 ----------------------------------------------------------------
    1      C      -0.4719460000     2.9517310000    -0.2203550000
    2      F       0.5797890000     2.3174440000     0.0062490000
    3      F      -1.1453660000     3.2560680000     0.7869850000
    4      F      -1.2368470000     0.8977900000     0.5527380000
    5      F      -1.1385560000     2.5471070000    -1.2067890000
 ----------------------------------------------------------------
 Nuclear Repulsion Energy =   195.4902528802 hartrees
 There are       21 alpha and       20 beta electrons
 Requested basis set is 6-31G(d)
 There are 20 shells and 75 basis functions

 Total QAlloc Memory Limit   3000 MB
 Mega-Array Size      1467 MB
 MEM_STATIC part      1500 MB

                       Distance Matrix (Angstroms)
             C (  1)   F (  2)   F (  3)   F (  4)
   F (  2)  1.248926
   F (  3)  1.249340  2.113462
   F (  4)  2.324096  2.369437  2.371648
   F (  5)  1.257434  2.115872  2.116083  2.413678
 
 tim1(1): 
  3.999999999999997E-003
 tim1(2): 
  0.000000000000000E+000
 A cutoff of  1.0D-10 yielded    201 shell pairs
 There are      2970 function pairs
 
 -------------------------------------------------------
 OpenMP Integral Computing Module                       
 Release: version 1.0, May 2013, Q-Chem Inc. Pittsburgh 
 -------------------------------------------------------
 Integral Job Info:
 Integral job number is                      11
 Integral operator is                         1
 short-range coefficients                     0
 long-range coefficients              100000000
 Omega coefficients                           0
 if combine SR and LR in K                    0
 Integral screening is                        0
 Integral computing path is                   2
 max size of driver memory is            800000
 size of driver memory is                593474
 size of scratch memory is              2260544
 max col of scratch BK array               1296
 max len of scratch array in speh3          155
 max len of scratch index in speh4           18
 max int batch size is                      520
 min int batch size is                       52
 fixed nKL is                                52
 max L of basis functions is                  2
 order of int derivative is                   0
 number of shells is                         20
 number of basis is                          75
 number of cartesian basis is                75
 number of contracted shell pairs           201
 number of primitive shell pairs           1011
 maxK2 (contraction) of shell pair           36
 max number of K2 of shell pair               1
 max number of CS2 of shell pair             32
 max number of PS2 of shell pair            192
 mem total for path MDJ                   21832
 -------------------------------------------------------
 Smallest overlap matrix eigenvalue = 1.41E-03

 Scale SEOQF with 1.000000e+00/1.000000e-01/1.000000e+00

 Standard Electronic Orientation quadrupole field applied
 Nucleus-field energy     =     0.0000000103 hartrees
 Guess from superposition of atomic densities
 Warning:  Energy on first SCF cycle will be non-variational
 An unrestricted Hartree-Fock SCF calculation will be
 performed using Pulay DIIS + Geometric Direct Minimization
 SCF converges when RMS gradient is below 1.0E-07
 ---------------------------------------
  Cycle       Energy         DIIS Error
 ---------------------------------------
    1    -436.1841554615      8.58E-02
    2    -434.8840364929      1.84E-02
    3    -435.0841300182      9.09E-03 Done DIIS. Switching to GDM
    4    -435.1245183661      2.42E-02 Normal BFGS step
    5    -435.1264642895      1.23E-02 Normal BFGS step
    6    -435.1270796568      2.77E-03 Normal BFGS step
    7    -435.1271189359      2.72E-03 Normal BFGS step
    8    -435.1271368165      2.67E-03 Normal BFGS step
    9    -435.1271591530      2.57E-03 Normal BFGS step
   10    -435.1271976225      2.36E-03 Normal BFGS step
   11    -435.1272678329      2.53E-03 Normal BFGS step
   12    -435.1273663891      2.91E-03 Normal BFGS step
   13    -435.1274578996      2.45E-03 Normal BFGS step
   14    -435.1275092715      1.41E-03 Normal BFGS step
   15    -435.1275259171      6.55E-04 Normal BFGS step
   16    -435.1275306131      2.95E-04 Normal BFGS step
   17    -435.1275318560      1.12E-04 Normal BFGS step
   18    -435.1275320539      8.31E-05 Normal BFGS step
   19    -435.1275320973      8.35E-05 Normal BFGS step
   20    -435.1275321155      8.37E-05 Normal BFGS step
   21    -435.1275321368      8.39E-05 Normal BFGS step
   22    -435.1275321773      8.40E-05 Normal BFGS step
   23    -435.1275322676      8.42E-05 Normal BFGS step
   24    -435.1275324815      1.14E-04 Normal BFGS step
   25    -435.1275330073      1.93E-04 Normal BFGS step
   26    -435.1275343234      3.16E-04 Normal BFGS step
   27    -435.1275373176      5.01E-04 Normal BFGS step
   28    -435.1275410891      1.41E-03 Normal BFGS step
   29    -435.1275497368      1.45E-03 Normal BFGS step
   30    -435.1275741054      6.73E-04 Normal BFGS step
   31    -435.1275674402      8.07E-03 Line search: overstep
   32    -435.1275761007      1.23E-03 Normal BFGS step
   33    -435.1275878454      1.52E-03 Normal BFGS step
   34    -435.1276012991      8.68E-04 Normal BFGS step
   35    -435.1276030796      2.83E-03 Normal BFGS step
   36    -435.1276145998      5.17E-04 Normal BFGS step
   37    -435.1276203059      5.88E-04 Normal BFGS step
   38    -435.1276120960      7.41E-03 Line search: overstep
   39    -435.1276259567      8.85E-04 Normal BFGS step
   40    -435.1276317018      9.49E-04 Normal BFGS step
   41    -435.1276348760      4.55E-04 Normal BFGS step
   42    -435.1276367951      1.33E-03 Normal BFGS step
   43    -435.1276400983      5.94E-04 Normal BFGS step
   44    -435.1276420658      3.01E-04 Normal BFGS step
   45    -435.1276434818      6.77E-04 Normal BFGS step
   46    -435.1276444653      3.27E-04 Normal BFGS step
   47    -435.1276452373      1.42E-04 Normal BFGS step
   48    -435.1276458283      2.65E-04 Normal BFGS step
   49    -435.1276460034      9.34E-05 Normal BFGS step
   50    -435.1276460817      3.38E-05 Normal BFGS step
   51    -435.1276460981      1.88E-05 Normal BFGS step
   52    -435.1276461015      1.68E-05 Normal BFGS step
   53    -435.1276461035      1.55E-05 Normal BFGS step
   54    -435.1276461056      1.41E-05 Normal BFGS step
   55    -435.1276461097      1.46E-05 Normal BFGS step
   56    -435.1276461150      1.33E-05 Normal BFGS step
   57    -435.1276461195      9.95E-06 Normal BFGS step
   58    -435.1276461212      4.94E-06 Normal BFGS step
   59    -435.1276461215      3.71E-06 Normal BFGS step
   60    -435.1276461216      1.69E-06 Normal BFGS step
   61    -435.1276461216      5.74E-07 Normal BFGS step
   62    -435.1276461216      2.91E-07 Normal BFGS step
   63    -435.1276461216      1.19E-07 Normal BFGS step
   64    -435.1276461216      5.63E-08 Convergence criterion met
 ---------------------------------------
 <S^2> = 0.7529
 SCF time:  CPU 10.05 s  wall 57.47 s
 SCF   energy in the final basis set = -435.1276461216
 Total energy in the final basis set = -435.1276461216
================================================================================
|                                                                              |
|                                 A D C  M A N                                 |
|                                                                              |
 ------------------------------------------------------------------------------ 
|                                                                              |
| Components:                                                                  |
|                                                                              |
| - libvmm - 1.2-release                                                       |
|   Authors:                                                                   |
|   Evgeny Epifanovsky, Ilya Kaliman                                           |
|                                                                              |
| - libtensor - 2.4-trunk                                                      |
|   Authors:                                                                   |
|   Evgeny Epifanovsky, Michael Wormit, Dmitry Zuev, Sam Manzer                |
|                                                                              |
| - libwfa - 1.1-beta                                                          |
|   Authors:                                                                   |
|   Felix Plasser, Stefanie Baeppler, Benjamin Thomitzni, Michael Wormit       |
|                                                                              |
| - libadc - 1.0-beta                                                          |
|   Authors:                                                                   |
|   Michael Wormit, Philipp H. P. Harbach, Caroline Krauter, Dirk Rehn,        |
|   Matthias Schneider, Jan Wenzel                                             |
|                                                                              |
| - adcman - 2.4-beta                                                          |
|   Authors:                                                                   |
|   Michael Wormit, Philipp H. P. Harbach, Caroline Krauter, Dirk Rehn,        |
|   Jan Wenzel, Andreas Dreuw                                                  |
|                                                                              |
| Authors of earlier versions of ADCMAN:                                       |
| Andreas Dreuw, Jan Hendrik Starcke, Dirk Rehn, Michael Wormit                |
|                                                                              |
================================================================================

 
 Alpha MOs, Unrestricted
 -- Occupied --                  
-26.740 -26.739 -26.735 -26.628 -11.962  -2.145  -2.040  -2.034
  1 A     2 A     3 A     4 A     5 A     6 A     7 A     8 A                  
 -1.885  -1.316  -1.219  -1.218  -1.171  -1.069  -1.059  -1.050
  9 A    10 A    11 A    12 A    13 A    14 A    15 A    16 A                  
 -1.030  -1.021  -1.011  -0.940  -0.938
 17 A    18 A    19 A    20 A    21 A                                          
 -- Virtual --                   
 -0.287   0.126   0.141   0.143   0.353   0.386   0.389   0.485
 22 A    23 A    24 A    25 A    26 A    27 A    28 A    29 A                  
  0.940   0.977   1.000   1.019   1.021   1.035   1.180   1.208
 30 A    31 A    32 A    33 A    34 A    35 A    36 A    37 A                  
  1.226   1.296   1.297   1.314   1.370   1.389   1.412   1.630
 38 A    39 A    40 A    41 A    42 A    43 A    44 A    45 A                  
  1.636   1.644   1.728   1.738   1.783   1.800   1.802   1.851
 46 A    47 A    48 A    49 A    50 A    51 A    52 A    53 A                  
  1.858   1.874   1.933   1.944   1.979   2.017   2.027   2.064
 54 A    55 A    56 A    57 A    58 A    59 A    60 A    61 A                  
  2.451   2.535   2.545   2.709   2.863   2.867   3.129   3.132
 62 A    63 A    64 A    65 A    66 A    67 A    68 A    69 A                  
  3.294   3.743   4.278   4.506   4.526   6.869
 70 A    71 A    72 A    73 A    74 A    75 A                                  
 
 Beta MOs, Unrestricted
 -- Occupied --                  
-26.740 -26.739 -26.735 -26.580 -11.962  -2.145  -2.040  -2.034
  1 A     2 A     3 A     4 A     5 A     6 A     7 A     8 A                  
 -1.694  -1.316  -1.219  -1.218  -1.169  -1.059  -1.058  -1.031
  9 A    10 A    11 A    12 A    13 A    14 A    15 A    16 A                  
 -1.029  -1.011  -0.888  -0.886
 17 A    18 A    19 A    20 A                                                  
 -- Virtual --                   
 -0.287  -0.132   0.128   0.141   0.145   0.353   0.386   0.392
 21 A    22 A    23 A    24 A    25 A    26 A    27 A    28 A                  
  0.492   0.953   1.006   1.011   1.023   1.043   1.052   1.215
 29 A    30 A    31 A    32 A    33 A    34 A    35 A    36 A                  
  1.232   1.240   1.297   1.297   1.314   1.399   1.414   1.468
 37 A    38 A    39 A    40 A    41 A    42 A    43 A    44 A                  
  1.641   1.650   1.654   1.739   1.739   1.783   1.816   1.818
 45 A    46 A    47 A    48 A    49 A    50 A    51 A    52 A                  
  1.869   1.929   1.934   1.950   1.957   1.998   2.032   2.058
 53 A    54 A    55 A    56 A    57 A    58 A    59 A    60 A                  
  2.064   2.453   2.536   2.546   2.715   2.863   2.867   3.129
 61 A    62 A    63 A    64 A    65 A    66 A    67 A    68 A                  
  3.132   3.297   3.779   4.278   4.506   4.527   6.871
 69 A    70 A    71 A    72 A    73 A    74 A    75 A                          
 

--------------------------------------------------------------------------------
                                   HF Summary                                   
--------------------------------------------------------------------------------
  Energy:                                                 -435.1276461216 a.u.
  Dip. moment [a.u.]:                  [ -54.483395,  181.275210,    0.269346]
  Total dipole [Debye]:                                             481.117280
  <r^2> [a.u.]:                        [ 163.046557,  918.032898,   93.040570]
  Total <r^2> [a.u.]:                                              1174.120026
--------------------------------------------------------------------------------

--------------------------------------------------------------------------------
                                 MP(2) Summary                                  
--------------------------------------------------------------------------------
  Energy contribution:                                      -0.7546715301 a.u.
  Total energy:                                           -435.8823176518 a.u.
  Dip. moment [a.u.]:                  [ -54.410591,  181.461827,    0.205507]
  Total dipole [Debye]:                                             481.518174
  <r^2> [a.u.]:                        [ 162.614737,  920.163515,   92.784220]
  Total <r^2> [a.u.]:                                              1175.562472
--------------------------------------------------------------------------------
  Starting Davidson ... 
--------------------------------------------------------------------------------
   It NVec Conv  Avg. Norm  Max. Norm  Conv. states           Remark
--------------------------------------------------------------------------------
        20    0  2.065e-01  1.148e+00 10.9278 n n n n n n n n Guess.
    1   40    0  7.326e-02  1.027e+00 10.7654 n n n n n n n n 
    2   60    0  1.976e-02  3.312e-01 10.7642 n n n n n n n n 
    3   80    0  5.578e-03  8.741e-02 10.7642 n n n n n n n n 
    4  100    0  3.003e-03  4.471e-02 10.7642 n n n n n n n n 
    5   40    0  1.803e-03  2.492e-02 10.7642 n n n n n n n n Subspace collapsed.
    6   60    0  1.586e-03  2.392e-02 10.7642 n n n n n n n n 
    7   80    0  1.501e-03  2.340e-02 10.7642 n n n n n n n n 
    8  100    2  1.282e-03  1.626e-02 10.7642 y y n n n n n n 
    9   40    6  7.849e-04  1.131e-02 10.7642 y y y n n y n y Subspace collapsed.
   10   60    9  6.443e-04  1.003e-02 10.7642 y y y y y y y y 
   11   80    9  6.730e-04  9.446e-03 10.7642 y y y y y y y y 
   12  100   11  6.898e-04  1.154e-02 10.7642 y y y y y y y y 
   13   40   13  5.506e-04  8.074e-03 10.7642 y y y y y y y y Subspace collapsed.
   14   60   15  5.606e-04  9.669e-03 10.7642 y y y y y y y y 
   15   80   15  5.893e-04  9.612e-03 10.7642 y y y y y y y y 
   16   99   15  9.248e-04  1.472e-02 10.7642 y y y y y y y y 
   17  100   15  9.407e-04  1.511e-02 10.7642 y y y y y y y y 
   18   38   15  5.830e-04  9.836e-03 10.7642 y y y y y y y y Subspace collapsed.
   19   56   16  5.659e-04  9.828e-03 10.7642 y y y y y y y y 
   20   59   16  5.537e-04  9.490e-03 10.7642 y y y y y y y y 
   21   59   16  5.537e-04  9.490e-03 10.7642 y y y y y y y y 
   22   79   16  5.423e-04  8.635e-03 10.7642 y y y y y y y y 
   23   92   16  7.294e-04  1.177e-02 10.7642 y y y y y y y y 
   24  100   16  7.988e-04  1.186e-02 10.7642 y y y y y y y y 
   25   31   16  5.685e-04  8.103e-03 10.7642 y y y y y y y y Subspace collapsed.
   26   42   17  6.164e-04  9.799e-03 10.7642 y y y y y y y y 
   27   53   17  6.459e-04  9.788e-03 10.7642 y y y y y y y y 
   28   64   17  9.278e-04  1.323e-02 10.7642 y y y y y y y y 
   29   66   17  9.323e-04  1.334e-02 10.7642 y y y y y y y y 
   30   76   17  3.759e-03  6.059e-02 10.7642 y y y y y y y y 
   31   85   17  3.561e-03  5.688e-02 10.7642 y y y y y y y y 
   32   86   17  3.446e-03  4.896e-02 10.7642 y y y y y y y y 
   33   86   17  3.446e-03  4.896e-02 10.7642 y y y y y y y y 
   34   87   17  3.444e-03  4.903e-02 10.7642 y y y y y y y y 
   35   87   17  3.444e-03  4.903e-02 10.7642 y y y y y y y y 
   36   87   17  3.444e-03  4.903e-02 10.7642 y y y y y y y y 
   37  100   17  3.447e-03  5.060e-02 10.7642 y y y y y y y y 
   38   20   17  3.447e-03  5.060e-02 10.7642 y y y y y y y y Subspace collapsed.
   39   20   17  3.447e-03  5.060e-02 10.7642 y y y y y y y y 
   40   20   17  3.447e-03  5.060e-02 10.7642 y y y y y y y y 
   41   40   17  1.817e-03  3.321e-02 10.7642 y y y y y y y y 
   42   46   17  1.138e-03  2.122e-02 10.7642 y y y y y y y y 
   43   52   17  6.895e-04  1.297e-02 10.7642 y y y y y y y y 
   44   57   17  5.468e-04  1.039e-02 10.7642 y y y y y y y y 
   45   62   17  4.967e-04  9.619e-03 10.7642 y y y y y y y y 
   46   67   17  5.928e-04  1.158e-02 10.7642 y y y y y y y y 
   47   72   17  5.591e-04  1.078e-02 10.7642 y y y y y y y y 
   48   77   17  3.580e-04  6.421e-03 10.7642 y y y y y y y y 
   49   82   17  2.932e-04  4.816e-03 10.7642 y y y y y y y y 
   50   87   17  1.938e-04  2.835e-03 10.7642 y y y y y y y y 
   51   92   17  1.400e-04  2.010e-03 10.7642 y y y y y y y y 
   52   97   17  1.772e-04  2.543e-03 10.7642 y y y y y y y y 
   53  100   17  2.116e-04  3.227e-03 10.7642 y y y y y y y y 
   54   25   17  1.079e-04  1.644e-03 10.7642 y y y y y y y y Subspace collapsed.
   55   30   17  1.007e-04  1.449e-03 10.7642 y y y y y y y y 
   56   35   17  1.045e-04  1.546e-03 10.7642 y y y y y y y y 
   57   40   17  1.022e-04  1.571e-03 10.7642 y y y y y y y y 
   58   45   17  9.995e-05  1.654e-03 10.7642 y y y y y y y y 
   59   50   17  9.083e-05  1.550e-03 10.7642 y y y y y y y y 
--------------------------------------------------------------------------------
  Davidson Summary: 
 ------------------------------------------------------------
  State  0: excitation energy =  10.7642 a.u.   (converged)
  State  1: excitation energy =  10.8337 a.u.   (converged)
  State  2: excitation energy =  11.1589 a.u.   (converged)
  State  3: excitation energy =  11.1710 a.u.   (converged)
  State  4: excitation energy =  11.1782 a.u.   (converged)
  State  5: excitation energy =  11.1791 a.u.   (converged)
  State  6: excitation energy =  11.2465 a.u.   (converged)
  State  7: excitation energy =  11.2539 a.u.   (converged)
  State  8: excitation energy =  11.2543 a.u.   (converged)
  State  9: excitation energy =  11.5162 a.u.   (converged)
  State 10: excitation energy =  11.5673 a.u.   (converged)
  State 11: excitation energy =  11.5699 a.u.   (converged)
  State 12: excitation energy =  11.5701 a.u.   (converged)
  State 13: excitation energy =  11.5877 a.u.   (converged)
  State 14: excitation energy =  11.5883 a.u.   (converged)
  State 15: excitation energy =  11.6909 a.u.   (converged)
  State 16: excitation energy =  11.7141 a.u.   (converged)
  State 17: excitation energy =  12.2052 a.u.   (not converged)
  State 18: excitation energy =  12.2067 a.u.   (not converged)
  State 19: excitation energy =  12.2097 a.u.   (not converged)
 ------------------------------------------------------------


--------------------------------------------------------------------------------
                             Excited State Summary
--------------------------------------------------------------------------------

  Excited state  1 (A)                                             [converged]
  ----------------------------------------------------------------------------
  Term symbol:  2 (-) A                                     R^2 =  1.39982e-13

  Total energy:                                           -425.1181460530 a.u.
  Excitation energy:                                             292.908006 eV

  Osc. strength:                                                      0.000000
  Trans. dip. moment [a.u.]:           [   0.000047,    0.000108,   -0.000029]
  <i|r^2|0> [a.u.]:                    [  -0.000071,    0.001224,    0.000035]

  V1^2 = 0.9553, V2^2 = 0.0447

  Important amplitudes:
     core i     occ j      vir a      vir b          v   
    ------------------------------------------------------
     5 (A) A              22 (A) A                 0.6535
     5 (A) B              21 (A) B                -0.6523
    ------------------------------------------------------
  ----------------------------------------------------------------------------


  Excited state  2 (A)                                             [converged]
  ----------------------------------------------------------------------------
  Term symbol:  3 (-) A                                     R^2 =  1.11201e-13

  Total energy:                                           -425.0486329568 a.u.
  Excitation energy:                                             294.799553 eV

  Osc. strength:                                                      0.090828
  Trans. dip. moment [a.u.]:           [   0.038208,    0.099415,   -0.035109]
  <i|r^2|0> [a.u.]:                    [  -0.059892,    1.121024,    0.037440]

  V1^2 = 0.9498, V2^2 = 0.0502

  Important amplitudes:
     core i     occ j      vir a      vir b          v   
    ------------------------------------------------------
     5 (A) B              21 (A) B                 0.6651
     5 (A) A              22 (A) A                 0.6639
    ------------------------------------------------------
  ----------------------------------------------------------------------------


  Excited state  3 (A)                                             [converged]
  ----------------------------------------------------------------------------
  Term symbol:  4 (-) A                                     R^2 =  2.52021e-13

  Total energy:                                           -424.7234554770 a.u.
  Excitation energy:                                             303.648083 eV

  Osc. strength:                                                      0.000032
  Trans. dip. moment [a.u.]:           [   0.001710,   -0.000933,   -0.000713]
  <i|r^2|0> [a.u.]:                    [  -0.002995,   -0.010553,    0.000681]

  V1^2 = 0.8487, V2^2 = 0.1513

  Important amplitudes:
     core i     occ j      vir a      vir b          v   
    ------------------------------------------------------
     5 (A) B              22 (A) B                 0.9168
     5 (A) B   13 (A) A   22 (A) A   22 (A) B     -0.0738
    ------------------------------------------------------
  ----------------------------------------------------------------------------


  Excited state  4 (A)                                             [converged]
  ----------------------------------------------------------------------------
  Term symbol:  5 (-) A                                     R^2 =  3.00610e-13

  Total energy:                                           -424.7113156317 a.u.
  Excitation energy:                                             303.978425 eV

  Osc. strength:                                                      0.000000
  Trans. dip. moment [a.u.]:           [  -0.000020,   -0.000051,    0.000035]
  <i|r^2|0> [a.u.]:                    [   0.000054,   -0.000535,   -0.000010]

  V1^2 = 0.9458, V2^2 = 0.0542

  Important amplitudes:
     core i     occ j      vir a      vir b          v   
    ------------------------------------------------------
     5 (A) A              24 (A) A                -0.4332
     5 (A) B              24 (A) B                 0.4264
    ------------------------------------------------------
  ----------------------------------------------------------------------------


  Excited state  5 (A)                                             [converged]
  ----------------------------------------------------------------------------
  Term symbol:  6 (-) A                                     R^2 =  1.63344e-13

  Total energy:                                           -424.7041345896 a.u.
  Excitation energy:                                             304.173831 eV

  Osc. strength:                                                      0.000000
  Trans. dip. moment [a.u.]:           [   0.000111,    0.000120,   -0.000080]
  <i|r^2|0> [a.u.]:                    [  -0.000244,    0.001253,    0.000023]

  V1^2 = 0.9361, V2^2 = 0.0639

  Important amplitudes:
     core i     occ j      vir a      vir b          v   
    ------------------------------------------------------
     5 (A) A              23 (A) A                -0.5008
     5 (A) B              23 (A) B                 0.4905
    ------------------------------------------------------
  ----------------------------------------------------------------------------


  Excited state  6 (A)                                             [converged]
  ----------------------------------------------------------------------------
  Term symbol:  7 (-) A                                     R^2 =  3.42723e-13

  Total energy:                                           -424.7032091582 a.u.
  Excitation energy:                                             304.199013 eV

  Osc. strength:                                                      0.000001
  Trans. dip. moment [a.u.]:           [   0.000279,   -0.000189,   -0.000109]
  <i|r^2|0> [a.u.]:                    [  -0.000487,   -0.002111,    0.000116]

  V1^2 = 0.9491, V2^2 = 0.0509

  Important amplitudes:
     core i     occ j      vir a      vir b          v   
    ------------------------------------------------------
     5 (A) B              25 (A) B                -0.5294
     5 (A) A              25 (A) A                 0.5287
    ------------------------------------------------------
  ----------------------------------------------------------------------------


  Excited state  7 (A)                                             [converged]
  ----------------------------------------------------------------------------
  Term symbol:  8 (-) A                                     R^2 =  1.52885e-13

  Total energy:                                           -424.6357886466 a.u.
  Excitation energy:                                             306.033618 eV

  Osc. strength:                                                      0.101218
  Trans. dip. moment [a.u.]:           [  -0.060745,   -0.037442,   -0.091695]
  <i|r^2|0> [a.u.]:                    [   0.116997,   -0.407099,    0.081314]

  V1^2 = 0.9381, V2^2 = 0.0619

  Important amplitudes:
     core i     occ j      vir a      vir b          v   
    ------------------------------------------------------
     5 (A) A              24 (A) A                -0.4972
     5 (A) B              24 (A) B                -0.4903
    ------------------------------------------------------
  ----------------------------------------------------------------------------


  Excited state  8 (A)                                             [converged]
  ----------------------------------------------------------------------------
  Term symbol:  9 (-) A                                     R^2 =  1.41932e-13

  Total energy:                                           -424.6284193639 a.u.
  Excitation energy:                                             306.234147 eV

  Osc. strength:                                                      0.093826
  Trans. dip. moment [a.u.]:           [   0.083998,   -0.022089,   -0.070443]
  <i|r^2|0> [a.u.]:                    [  -0.160472,   -0.260647,    0.054279]

  V1^2 = 0.9362, V2^2 = 0.0638

  Important amplitudes:
     core i     occ j      vir a      vir b          v   
    ------------------------------------------------------
     5 (A) B              25 (A) B                 0.4864
     5 (A) A              25 (A) A                 0.4832
    ------------------------------------------------------
  ----------------------------------------------------------------------------


  Excited state  9 (A)                                             [converged]
  ----------------------------------------------------------------------------
  Term symbol:  10 (-) A                                    R^2 =  8.95516e-14

  Total energy:                                           -424.6280452164 a.u.
  Excitation energy:                                             306.244328 eV

  Osc. strength:                                                      0.063524
  Trans. dip. moment [a.u.]:           [  -0.056239,    0.067274,   -0.027892]
  <i|r^2|0> [a.u.]:                    [   0.089313,    0.731936,    0.006535]

  V1^2 = 0.9284, V2^2 = 0.0716

  Important amplitudes:
     core i     occ j      vir a      vir b          v   
    ------------------------------------------------------
     5 (A) A              23 (A) A                -0.4703
     5 (A) B              23 (A) B                -0.4695
    ------------------------------------------------------
  ----------------------------------------------------------------------------


  Excited state 10 (A)                                             [converged]
  ----------------------------------------------------------------------------
  Term symbol:  11 (-) A                                    R^2 =  1.71839e-13

  Total energy:                                           -424.3661016564 a.u.
  Excitation energy:                                             313.372175 eV

  Osc. strength:                                                      0.000000
  Trans. dip. moment [a.u.]:           [   0.000018,    0.000055,   -0.000019]
  <i|r^2|0> [a.u.]:                    [  -0.000037,    0.000614,    0.000010]

  V1^2 = 0.9179, V2^2 = 0.0821

  Important amplitudes:
     core i     occ j      vir a      vir b          v   
    ------------------------------------------------------
     5 (A) B              26 (A) B                -0.6429
     5 (A) A              26 (A) A                 0.6420
    ------------------------------------------------------
  ----------------------------------------------------------------------------


  Excited state 11 (A)                                             [converged]
  ----------------------------------------------------------------------------
  Term symbol:  12 (-) A                                    R^2 =  1.82642e-13

  Total energy:                                           -424.3149826174 a.u.
  Excitation energy:                                             314.763194 eV

  Osc. strength:                                                      0.022517
  Trans. dip. moment [a.u.]:           [  -0.018813,   -0.047983,    0.016237]
  <i|r^2|0> [a.u.]:                    [   0.012823,   -0.556218,   -0.034303]

  V1^2 = 0.9180, V2^2 = 0.0820

  Important amplitudes:
     core i     occ j      vir a      vir b          v   
    ------------------------------------------------------
     5 (A) A              26 (A) A                 0.6641
     5 (A) B              26 (A) B                 0.6638
    ------------------------------------------------------
  ----------------------------------------------------------------------------


  Excited state 12 (A)                                             [converged]
  ----------------------------------------------------------------------------
  Term symbol:  13 (-) A                                    R^2 =  9.73887e-14

  Total energy:                                           -424.3123843630 a.u.
  Excitation energy:                                             314.833896 eV

  Osc. strength:                                                      0.000002
  Trans. dip. moment [a.u.]:           [  -0.000235,    0.000083,   -0.000373]
  <i|r^2|0> [a.u.]:                    [   0.000481,    0.000985,    0.000355]

  V1^2 = 0.8953, V2^2 = 0.1047

  Important amplitudes:
     core i     occ j      vir a      vir b          v   
    ------------------------------------------------------
     5 (A) A              27 (A) A                 0.5392
     5 (A) B              27 (A) B                -0.5320
    ------------------------------------------------------
  ----------------------------------------------------------------------------


  Excited state 13 (A)                                             [converged]
  ----------------------------------------------------------------------------
  Term symbol:  14 (-) A                                    R^2 =  2.74468e-13

  Total energy:                                           -424.3122586088 a.u.
  Excitation energy:                                             314.837318 eV

  Osc. strength:                                                      0.000232
  Trans. dip. moment [a.u.]:           [  -0.004521,    0.002470,    0.001893]
  <i|r^2|0> [a.u.]:                    [   0.008223,    0.027535,   -0.001652]

  V1^2 = 0.8951, V2^2 = 0.1049

  Important amplitudes:
     core i     occ j      vir a      vir b          v   
    ------------------------------------------------------
     5 (A) A              28 (A) A                 0.5742
     5 (A) B              28 (A) B                -0.4848
    ------------------------------------------------------
  ----------------------------------------------------------------------------


  Excited state 14 (A)                                             [converged]
  ----------------------------------------------------------------------------
  Term symbol:  15 (-) A                                    R^2 =  3.09805e-13

  Total energy:                                           -424.2946321886 a.u.
  Excitation energy:                                             315.316958 eV

  Osc. strength:                                                      0.033989
  Trans. dip. moment [a.u.]:           [   0.029794,    0.009267,    0.058535]
  <i|r^2|0> [a.u.]:                    [  -0.054295,    0.102754,   -0.047589]

  V1^2 = 0.8985, V2^2 = 0.1015

  Important amplitudes:
     core i     occ j      vir a      vir b          v   
    ------------------------------------------------------
     5 (A) B              27 (A) B                -0.5791
     5 (A) A              27 (A) A                -0.5721
    ------------------------------------------------------
  ----------------------------------------------------------------------------


  Excited state 15 (A)                                             [converged]
  ----------------------------------------------------------------------------
  Term symbol:  16 (-) A                                    R^2 =  2.27437e-13

  Total energy:                                           -424.2939746890 a.u.
  Excitation energy:                                             315.334849 eV

  Osc. strength:                                                      0.034434
  Trans. dip. moment [a.u.]:           [   0.055149,   -0.029457,   -0.023408]
  <i|r^2|0> [a.u.]:                    [  -0.100031,   -0.328054,    0.020545]

  V1^2 = 0.8983, V2^2 = 0.1017

  Important amplitudes:
     core i     occ j      vir a      vir b          v   
    ------------------------------------------------------
     5 (A) B              28 (A) B                -0.6152
     5 (A) A              28 (A) A                -0.5272
    ------------------------------------------------------
  ----------------------------------------------------------------------------


  Excited state 16 (A)                                             [converged]
  ----------------------------------------------------------------------------
  Term symbol:  17 (-) A                                    R^2 =  2.31169e-10

  Total energy:                                           -424.1913919136 a.u.
  Excitation energy:                                             318.126268 eV

  Osc. strength:                                                      0.000473
  Trans. dip. moment [a.u.]:           [   0.002542,    0.006877,   -0.002629]
  <i|r^2|0> [a.u.]:                    [  -0.006868,    0.074625,   -0.000164]

  V1^2 = 0.8875, V2^2 = 0.1125

  Important amplitudes:
     core i     occ j      vir a      vir b          v   
    ------------------------------------------------------
     5 (A) A              29 (A) A                -0.7265
     5 (A) B              29 (A) B                 0.5024
    ------------------------------------------------------
  ----------------------------------------------------------------------------


  Excited state 17 (A)                                             [converged]
  ----------------------------------------------------------------------------
  Term symbol:  18 (-) A                                    R^2 =  7.88226e-12

  Total energy:                                           -424.1681677263 a.u.
  Excitation energy:                                             318.758231 eV

  Osc. strength:                                                      0.014937
  Trans. dip. moment [a.u.]:           [   0.014351,    0.038640,   -0.014617]
  <i|r^2|0> [a.u.]:                    [  -0.038215,    0.419776,   -0.000566]

  V1^2 = 0.8889, V2^2 = 0.1111

  Important amplitudes:
     core i     occ j      vir a      vir b          v   
    ------------------------------------------------------
     5 (A) B              29 (A) B                -0.7456
     5 (A) A              29 (A) A                -0.5258
    ------------------------------------------------------
  ----------------------------------------------------------------------------


  Excited state 18 (A)                                         [not converged]
  ----------------------------------------------------------------------------
  Term symbol:  19 (-) A                                    R^2 =  1.08134e-04

  Total energy:                                           -423.6770805758 a.u.
  Excitation energy:                                             332.121392 eV


  V1^2 = 0.8591, V2^2 = 0.1409

  Important amplitudes:
     core i     occ j      vir a      vir b          v   
    ------------------------------------------------------
     5 (A) A              30 (A) A                -0.7865
     5 (A) A              35 (A) A                -0.3319
    ------------------------------------------------------
  ----------------------------------------------------------------------------


  Excited state 19 (A)                                         [not converged]
  ----------------------------------------------------------------------------
  Term symbol:  20 (-) A                                    R^2 =  1.54987e-03

  Total energy:                                           -423.6756219917 a.u.
  Excitation energy:                                             332.161082 eV


  V1^2 = 0.8638, V2^2 = 0.1362

  Important amplitudes:
     core i     occ j      vir a      vir b          v   
    ------------------------------------------------------
     5 (A) A              31 (A) A                -0.6781
     5 (A) A              33 (A) A                -0.5348
    ------------------------------------------------------
  ----------------------------------------------------------------------------


  Excited state 20 (A)                                         [not converged]
  ----------------------------------------------------------------------------
  Term symbol:  21 (-) A                                    R^2 =  9.41579e-04

  Total energy:                                           -423.6726200344 a.u.
  Excitation energy:                                             332.242769 eV


  V1^2 = 0.8613, V2^2 = 0.1387

  Important amplitudes:
     core i     occ j      vir a      vir b          v   
    ------------------------------------------------------
     5 (A) B              30 (A) B                -0.7765
     5 (A) B              33 (A) B                -0.3544
    ------------------------------------------------------
  ----------------------------------------------------------------------------


--------------------------------------------------------------------------------
  Time of ADC calculation:  CPU 1534.17 s  wall 1576.61 s
================================================================================
 
 --------------------------------------------------------------
 
                    Orbital Energies (a.u.)
 --------------------------------------------------------------
 
 Alpha MOs
 -- Occupied --
-26.740 -26.739 -26.735 -26.628 -11.962  -2.145  -2.040  -2.034
 -1.885  -1.316  -1.219  -1.218  -1.171  -1.069  -1.059  -1.050
 -1.030  -1.021  -1.011  -0.940  -0.938
 -- Virtual --
 -0.287   0.126   0.141   0.143   0.353   0.386   0.389   0.485
  0.940   0.977   1.000   1.019   1.021   1.035   1.180   1.208
  1.226   1.296   1.297   1.314   1.370   1.389   1.412   1.630
  1.636   1.644   1.728   1.738   1.783   1.800   1.802   1.851
  1.858   1.874   1.933   1.944   1.979   2.017   2.027   2.064
  2.451   2.535   2.545   2.709   2.863   2.867   3.129   3.132
  3.294   3.743   4.278   4.506   4.526   6.869
 
 Beta MOs
 -- Occupied --
-26.740 -26.739 -26.735 -26.580 -11.962  -2.145  -2.040  -2.034
 -1.694  -1.316  -1.219  -1.218  -1.169  -1.059  -1.058  -1.031
 -1.029  -1.011  -0.888  -0.886
 -- Virtual --
 -0.287  -0.132   0.128   0.141   0.145   0.353   0.386   0.392
  0.492   0.953   1.006   1.011   1.023   1.043   1.052   1.215
  1.232   1.240   1.297   1.297   1.314   1.399   1.414   1.468
  1.641   1.650   1.654   1.739   1.739   1.783   1.816   1.818
  1.869   1.929   1.934   1.950   1.957   1.998   2.032   2.058
  2.064   2.453   2.536   2.546   2.715   2.863   2.867   3.129
  3.132   3.297   3.779   4.278   4.506   4.527   6.871
 --------------------------------------------------------------
 
          Ground-State Mulliken Net Atomic Charges

     Atom                 Charge (a.u.)    Spin (a.u.)
  --------------------------------------------------------
      1 C                     1.352678      -0.006225
      2 F                    -0.122440       0.001475
      3 F                    -0.122667       0.001369
      4 F                     0.020928       1.003618
      5 F                    -0.128499      -0.000236
  --------------------------------------------------------
  Sum of atomic charges =     1.000000
  Sum of spin   charges =     1.000000

 -----------------------------------------------------------------
                    Cartesian Multipole Moments
 -----------------------------------------------------------------
    Charge (ESU x 10^10)
                 4.8032
    Dipole Moment (Debye)
         X      -2.2533      Y      14.1664      Z      -1.0183
       Tot      14.3806
    Quadrupole Moments (Debye-Ang)
        XX     -19.4732     XY      -6.4000     YY      22.0835
        XZ       0.0322     YZ      -3.4093     ZZ     -20.8050
    Octopole Moments (Debye-Ang^2)
       XXX      41.8048    XXY     -46.5082    XYY      -3.5630
       YYY     -16.4912    XXZ       1.1833    XYZ       0.3205
       YYZ     -11.1402    XZZ      13.4951    YZZ     -48.9715
       ZZZ       0.4032
    Hexadecapole Moments (Debye-Ang^3)
      XXXX    -128.9222   XXXY      95.4656   XXYY    -149.7103
      XYYY      46.3911   YYYY    -391.7329   XXXZ      -0.5833
      XXYZ       4.3801   XYYZ       1.8451   YYYZ     -30.3098
      XXZZ     -32.3025   XYZZ      30.3888   YYZZ    -144.0344
      XZZZ       1.6561   YZZZ       7.8713   ZZZZ     -73.7956
 -----------------------------------------------------------------
Archival summary:
1\1\tp-linux1\SP\HF\6-31G*\41(1+,2)\thomas\WedMar2218:01:562017WedMar2218:01:562017\0\\#,HF,6-31G*,\\1,2\F\C,1,1.24893\F,2,1.24934,1,115.552\F,2,1.25743,1,115.172,3,138.193,0\F,2,2.3241,1,76.5833,3,67.8824,0\\HF=-435.127646\\@

 Total job time:  1636.24s(wall), 1546.17s(cpu) 
 Wed Mar 22 18:01:56 2017

        *************************************************************
        *                                                           *
        *  Thank you very much for using Q-Chem.  Have a nice day.  *
        *                                                           *
        *************************************************************


0 sent ACK to 0 
now end server 0 ... 
cleanup process ... done
