
Running Job 1 of 2 ddtraj4t7.inp
qchem ddtraj4t7.inp_1325.0 /scratch/qchem/qchem1325/ 1
/mnt/software/qchem/bin/mpi/mpirun_qchem -machinefile /mnt/software/qchem/bin/mpi/machines -np 1 /mnt/software/qchem/exe/qcprog.exe ddtraj4t7.inp_1325.0 /scratch/qchem/qchem1325/

Process 0 of 1 is on tp-linux1 - thread support 0
initial socket setup ...start
initial socket setup ...done 
now start server 0 ... 

cmd = ssh tp-linux1 /mnt/software/qchem/bin/get_hostid 132668874 > /scratch/qchem/qchem1325/lic.dat
                  Welcome to Q-Chem
     A Quantum Leap Into The Future Of Chemistry


 Q-Chem 4.3, Q-Chem, Inc., Pleasanton, CA (2015)

 Y. Shao,  Z. Gan,  E. Epifanovsky,  A. T. B. Gilbert,  M. Wormit,  
 J. Kussmann,  A. W. Lange,  A. Behn,  J. Deng,  X. Feng,  D. Ghosh,  
 M. Goldey,  P. R. Horn,  L. D. Jacobson,  I. Kaliman,  R. Z. Khaliullin,  
 T. Kus,  A. Landau,  J. Liu,  E. I. Proynov,  Y. M. Rhee,  R. M. Richard,  
 M. A. Rohrdanz,  R. P. Steele,  E. J. Sundstrom,  H. L. Woodcock III,  
 P. M. Zimmerman,  D. Zuev,  B. Albrecht,  E. Alguire,  B. Austin,  
 S. A. Baeppler,  G. J. O. Beran,  Y. A. Bernard,  E. Berquist,  
 K. Brandhorst,  K. B. Bravaya,  S. T. Brown,  D. Casanova,  C.-M. Chang,  
 Y. Chen,  S. H. Chien,  K. D. Closser,  D. L. Crittenden,  M. Diedenhofen,  
 R. A. DiStasio Jr.,  H. Do,  A. D. Dutoi,  R. G. Edgar,  P.-T. Fang,  
 S. Fatehi,  Q. Feng,  L. Fusti-Molnar,  A. Ghysels,  
 A. Golubeva-Zadorozhnaya,  J. Gomes,  A. Gunina,  M. W. D. Hanson-Heine,  
 P. H. P. Harbach,  A. W. Hauser,  E. G. Hohenstein,  Z. C. Holden,  K. Hui,  
 T.-C. Jagau,  H. Ji,  B. Kaduk,  K. Khistyaev,  Jaehoon Kim,  Jihan Kim,  
 R. A. King,  P. Klunzinger,  D. Kosenkov,  T. Kowalczyk,  C. M. Krauter,  
 K. U. Lao,  A. Laurent,  K. V. Lawler,  S. Lehtola,  S. V. Levchenko,  
 C. Y. Lin,  Y.-S. Lin,  F. Liu,  E. Livshits,  R. C. Lochan,  A. Luenser,  
 P. Manohar,  S. F. Manzer,  S.-P. Mao,  N. Mardirossian,  A. V. Marenich,  
 L. A. Martinez-Martinez,  S. A. Maurer,  N. J. Mayhall,  K. Nanda,  
 C. M. Oana,  R. Olivares-Amaya,  D. P. O'Neill,  J. A. Parkhill,  
 T. M. Perrine,  R. Peverati,  P. A. Pieniazek,  F. Plasser,  A. Prociuk,  
 D. R. Rehn,  E. Rosta,  N. J. Russ,  N. Sergueev,  S. M. Sharada,  
 S. Sharma,  D. W. Small,  A. Sodt,  T. Stauch,  T. Stein,  D. Stuck,  
 Y.-C. Su,  A. J. W. Thom,  T. Tsuchimochi,  L. Vogt,  O. Vydrov,  T. Wang,  
 M. A. Watson,  J. Wenzel,  A. White,  C. F. Williams,  V. Vanovschi,  
 S. Yeganeh,  S. R. Yost,  Z.-Q. You,  I. Y. Zhang,  X. Zhang,  Y. Zhao,  
 B. R. Brooks,  G. K. L. Chan,  D. M. Chipman,  C. J. Cramer,  
 W. A. Goddard III,  M. S. Gordon,  W. J. Hehre,  A. Klamt,  
 H. F. Schaefer III,  M. W. Schmidt,  C. D. Sherrill,  D. G. Truhlar,  
 A. Warshel,  X. Xu,  A. Aspuru-Guzik,  R. Baer,  A. T. Bell,  N. A. Besley,  
 J.-D. Chai,  A. Dreuw,  B. D. Dunietz,  T. R. Furlani,  S. R. Gwaltney,  
 C.-P. Hsu,  Y. Jung,  J. Kong,  D. S. Lambrecht,  W. Liang,  C. Ochsenfeld,  
 V. A. Rassolov,  L. V. Slipchenko,  J. E. Subotnik,  T. Van Voorhis,  
 J. M. Herbert,  A. I. Krylov,  P. M. W. Gill,  M. Head-Gordon

 Contributors to earlier versions of Q-Chem not listed above: 
 R. D. Adamson,  J. Baker,  E. F. C. Byrd,  A. K. Chakraborty,  C.-L. Cheng,  
 H. Dachsel,  R. J. Doerksen,  G. Hawkins,  A. Heyden,  S. Hirata,  
 G. Kedziora,  F. J. Keil,  C. Kelley,  P. P. Korambath,  W. Kurlancheek,  
 A. M. Lee,  M. S. Lee,  D. Liotard,  I. Lotan,  P. E. Maslen,  N. Nair,  
 D. Neuhauser,  R. Olson,  B. Peters,  J. Ritchie,  N. E. Schultz,  
 N. Shenvi,  A. C. Simmonett,  K. S. Thanthiriwatte,  Q. Wu,  W. Zhang

 Please cite Q-Chem as follows:
 Y. Shao et al., Mol. Phys. 113, 184-215 (2015)
 DOI: 10.1080/00268976.2014.952696

 Q-Chem 4.3.0 for Intel X86 Linux

 Parts of Q-Chem use Armadillo 5.200.1 (Boston Tea Smuggler).
 http://arma.sourceforge.net/

 Q-Chem begins on Mon Mar 20 11:45:36 2017  

Host: 
0

     Scratch files written to /scratch/qchem/qchem1325//
 Nov1815 1189b_ 19540  19532 5443   
 Parallel job on  1  processors
Processing $rem in /mnt/software/qchem/config/preferences.
 MEM_TOTAL  2000 

Checking the input file for inconsistencies... 	...done.

--------------------------------------------------------------
User input:
--------------------------------------------------------------
$comment
XAS calculation for the 2b valence excited for water using cvs-adc(2)-x + 6-311+G* basis set
job 1 - determination of HF orbitals
$end

$molecule
0 1
6  -0.589362  2.536802  -0.099276
9  0.587473  2.33743  0.002253
9  -1.136793  3.261285  0.78785
9  -1.169359  1.122315  0.462178
9  -1.130202  2.543218  -1.19107
$end

$rem
jobtype      sp
sym_ignore true
exchange     hf
basis        6-31G*
unrestricted true
$end

--------------------------------------------------------------
 ----------------------------------------------------------------
             Standard Nuclear Orientation (Angstroms)
    I     Atom           X                Y                Z
 ----------------------------------------------------------------
    1      C      -0.5893620000     2.5368020000    -0.0992760000
    2      F       0.5874730000     2.3374300000     0.0022530000
    3      F      -1.1367930000     3.2612850000     0.7878500000
    4      F      -1.1693590000     1.1223150000     0.4621780000
    5      F      -1.1302020000     2.5432180000    -1.1910700000
 ----------------------------------------------------------------
 Nuclear Repulsion Energy =   207.5374066813 hartrees
 There are       21 alpha and       21 beta electrons
 Requested basis set is 6-31G(d)
 There are 20 shells and 75 basis functions

 Total QAlloc Memory Limit   2000 MB
 Mega-Array Size        61 MB
 MEM_STATIC part        62 MB

                       Distance Matrix (Angstroms)
             C (  1)   F (  2)   F (  3)   F (  4)
   F (  2)  1.197914
   F (  3)  1.269468  2.108024
   F (  4)  1.628619  2.185062  2.163866
   F (  5)  1.218427  2.101613  2.105181  2.180304
 
 tim1(1): 
  3.999999999999997E-003
 tim1(2): 
  0.000000000000000E+000
 A cutoff of  1.0D-08 yielded    197 shell pairs
 There are      2954 function pairs
 
 -------------------------------------------------------
 OpenMP Integral Computing Module                       
 Release: version 1.0, May 2013, Q-Chem Inc. Pittsburgh 
 -------------------------------------------------------
 Integral Job Info:
 Integral job number is                      11
 Integral operator is                         1
 short-range coefficients                     0
 long-range coefficients              100000000
 Omega coefficients                           0
 if combine SR and LR in K                    0
 Integral screening is                        0
 Integral computing path is                   2
 max size of driver memory is            800000
 size of driver memory is                593474
 size of scratch memory is              2260544
 max col of scratch BK array               1296
 max len of scratch array in speh3          155
 max len of scratch index in speh4           18
 max int batch size is                      520
 min int batch size is                       52
 fixed nKL is                                52
 max L of basis functions is                  2
 order of int derivative is                   0
 number of shells is                         20
 number of basis is                          75
 number of cartesian basis is                75
 number of contracted shell pairs           197
 number of primitive shell pairs            984
 maxK2 (contraction) of shell pair           36
 max number of K2 of shell pair               1
 max number of CS2 of shell pair             28
 max number of PS2 of shell pair            180
 mem total for path MDJ                   21832
 -------------------------------------------------------
 Smallest overlap matrix eigenvalue = 1.63E-03

 Scale SEOQF with 1.000000e+00/1.000000e-01/1.000000e+00

 Standard Electronic Orientation quadrupole field applied
 Nucleus-field energy     =     0.0000000108 hartrees
 Guess from superposition of atomic densities
 Warning:  Energy on first SCF cycle will be non-variational
 An unrestricted Hartree-Fock SCF calculation will be
 performed using Pulay DIIS extrapolation
 SCF converges when DIIS error is below 1.0E-05
 using 8 threads for integral computing 
 ---------------------------------------
  Cycle       Energy         DIIS Error
 ---------------------------------------
    1    -436.6699963122      9.35E-02
    2    -435.3753737343      1.84E-02
    3    -435.5057720651      1.13E-02
    4    -435.5615678015      1.10E-03
    5    -435.5624278063      3.99E-04
    6    -435.5625642210      1.09E-04
    7    -435.5625757830      4.56E-05
    8    -435.5625778839      7.87E-06 Convergence criterion met
 ---------------------------------------
 <S^2> = 0.0000
 SCF time:  CPU 8.30 s  wall 1.99 s
 SCF   energy in the final basis set = -435.5625778839
 Total energy in the final basis set = -435.5625778839
 
 --------------------------------------------------------------
 
                    Orbital Energies (a.u.)
 --------------------------------------------------------------
 
 Alpha MOs
 -- Occupied --
-26.440 -26.429 -26.402 -26.223 -11.628  -1.872  -1.776  -1.730
 -1.488  -1.035  -0.950  -0.938  -0.896  -0.789  -0.778  -0.766
 -0.745  -0.717  -0.566  -0.565  -0.561
 -- Virtual --
  0.236   0.382   0.479   0.511   0.653   0.692   0.732   0.740
  1.253   1.265   1.290   1.307   1.312   1.437   1.534   1.553
  1.558   1.566   1.588   1.626   1.717   1.718   1.779   1.896
  1.908   2.000   2.029   2.046   2.066   2.136   2.170   2.230
  2.259   2.303   2.316   2.347   2.387   2.454   2.469   2.476
  2.769   2.947   3.026   3.173   3.266   3.306   3.516   3.542
  3.574   4.350   4.720   5.031   5.260   6.435
 
 Beta MOs
 -- Occupied --
-26.440 -26.429 -26.402 -26.223 -11.628  -1.872  -1.776  -1.730
 -1.488  -1.035  -0.950  -0.938  -0.896  -0.789  -0.778  -0.766
 -0.745  -0.717  -0.566  -0.565  -0.561
 -- Virtual --
  0.236   0.382   0.479   0.511   0.653   0.692   0.732   0.740
  1.253   1.265   1.290   1.307   1.312   1.437   1.534   1.553
  1.558   1.566   1.588   1.626   1.717   1.718   1.779   1.896
  1.908   2.000   2.029   2.046   2.066   2.136   2.170   2.230
  2.259   2.303   2.316   2.347   2.387   2.454   2.469   2.476
  2.769   2.947   3.026   3.173   3.266   3.306   3.516   3.542
  3.574   4.350   4.720   5.031   5.260   6.435
 --------------------------------------------------------------
 
          Ground-State Mulliken Net Atomic Charges

     Atom                 Charge (a.u.)    Spin (a.u.)
  --------------------------------------------------------
      1 C                     1.231589       0.000000
      2 F                    -0.183151       0.000000
      3 F                    -0.273026       0.000000
      4 F                    -0.564748       0.000000
      5 F                    -0.210664       0.000000
  --------------------------------------------------------
  Sum of atomic charges =     0.000000
  Sum of spin   charges =     0.000000

 -----------------------------------------------------------------
                    Cartesian Multipole Moments
 -----------------------------------------------------------------
    Charge (ESU x 10^10)
                 0.0000
    Dipole Moment (Debye)
         X       1.4213      Y       2.6239      Z      -1.3318
       Tot       3.2678
    Quadrupole Moments (Debye-Ang)
        XX     -26.0930     XY       0.7466     YY     -14.0609
        XZ       1.3025     YZ      -2.4417     ZZ     -24.3418
    Octopole Moments (Debye-Ang^2)
       XXX      52.4962    XXY     -58.2661    XYY      15.9582
       YYY    -138.1352    XXZ      -1.4700    XYZ       2.0726
       YYZ      -6.1348    XZZ      17.5177    YZZ     -56.7848
       ZZZ      -0.1446
    Hexadecapole Moments (Debye-Ang^3)
      XXXX    -147.0812   XXXY     117.0916   XXYY    -172.1275
      XYYY     112.4115   YYYY    -783.8635   XXXZ       3.1282
      XXYZ      -1.5147   XYYZ       4.6381   YYYZ     -17.2651
      XXZZ     -37.4871   XYZZ      39.9800   YYZZ    -159.5943
      XZZZ       1.4378   YZZZ       2.2791   ZZZZ     -75.5057
 -----------------------------------------------------------------
Archival summary:
1\1\tp-linux1\SP\HF\6-31G*\41\thomas\MonMar2011:45:382017MonMar2011:45:382017\0\\#,HF,6-31G*,\\0,1\C\F,1,1.19791\F,1,1.21843,2,120.857\F,1,1.26947,2,117.348,3,151.076,0\F,1,1.62862,2,100.142,3,-106.905,0\\HF=-435.562578\\@

 Total job time:  2.32s(wall), 10.04s(cpu) 
 Mon Mar 20 11:45:38 2017

        *************************************************************
        *                                                           *
        *  Thank you very much for using Q-Chem.  Have a nice day.  *
        *                                                           *
        *************************************************************


0 sent ACK to 0 
now end server 0 ... 
cleanup process ... done

Running Job 2 of 2 ddtraj4t7.inp
qchem ddtraj4t7.inp_1325.1 /scratch/qchem/qchem1325/ 1
/mnt/software/qchem/bin/mpi/mpirun_qchem -machinefile /mnt/software/qchem/bin/mpi/machines -np 1 /mnt/software/qchem/exe/qcprog.exe ddtraj4t7.inp_1325.1 /scratch/qchem/qchem1325/

Process 0 of 1 is on tp-linux1 - thread support 0
initial socket setup ...start
initial socket setup ...done 
now start server 0 ... 

cmd = ssh tp-linux1 /mnt/software/qchem/bin/get_hostid 1840800568 > /scratch/qchem/qchem1325/lic.dat
                  Welcome to Q-Chem
     A Quantum Leap Into The Future Of Chemistry


 Q-Chem 4.3, Q-Chem, Inc., Pleasanton, CA (2015)

 Y. Shao,  Z. Gan,  E. Epifanovsky,  A. T. B. Gilbert,  M. Wormit,  
 J. Kussmann,  A. W. Lange,  A. Behn,  J. Deng,  X. Feng,  D. Ghosh,  
 M. Goldey,  P. R. Horn,  L. D. Jacobson,  I. Kaliman,  R. Z. Khaliullin,  
 T. Kus,  A. Landau,  J. Liu,  E. I. Proynov,  Y. M. Rhee,  R. M. Richard,  
 M. A. Rohrdanz,  R. P. Steele,  E. J. Sundstrom,  H. L. Woodcock III,  
 P. M. Zimmerman,  D. Zuev,  B. Albrecht,  E. Alguire,  B. Austin,  
 S. A. Baeppler,  G. J. O. Beran,  Y. A. Bernard,  E. Berquist,  
 K. Brandhorst,  K. B. Bravaya,  S. T. Brown,  D. Casanova,  C.-M. Chang,  
 Y. Chen,  S. H. Chien,  K. D. Closser,  D. L. Crittenden,  M. Diedenhofen,  
 R. A. DiStasio Jr.,  H. Do,  A. D. Dutoi,  R. G. Edgar,  P.-T. Fang,  
 S. Fatehi,  Q. Feng,  L. Fusti-Molnar,  A. Ghysels,  
 A. Golubeva-Zadorozhnaya,  J. Gomes,  A. Gunina,  M. W. D. Hanson-Heine,  
 P. H. P. Harbach,  A. W. Hauser,  E. G. Hohenstein,  Z. C. Holden,  K. Hui,  
 T.-C. Jagau,  H. Ji,  B. Kaduk,  K. Khistyaev,  Jaehoon Kim,  Jihan Kim,  
 R. A. King,  P. Klunzinger,  D. Kosenkov,  T. Kowalczyk,  C. M. Krauter,  
 K. U. Lao,  A. Laurent,  K. V. Lawler,  S. Lehtola,  S. V. Levchenko,  
 C. Y. Lin,  Y.-S. Lin,  F. Liu,  E. Livshits,  R. C. Lochan,  A. Luenser,  
 P. Manohar,  S. F. Manzer,  S.-P. Mao,  N. Mardirossian,  A. V. Marenich,  
 L. A. Martinez-Martinez,  S. A. Maurer,  N. J. Mayhall,  K. Nanda,  
 C. M. Oana,  R. Olivares-Amaya,  D. P. O'Neill,  J. A. Parkhill,  
 T. M. Perrine,  R. Peverati,  P. A. Pieniazek,  F. Plasser,  A. Prociuk,  
 D. R. Rehn,  E. Rosta,  N. J. Russ,  N. Sergueev,  S. M. Sharada,  
 S. Sharma,  D. W. Small,  A. Sodt,  T. Stauch,  T. Stein,  D. Stuck,  
 Y.-C. Su,  A. J. W. Thom,  T. Tsuchimochi,  L. Vogt,  O. Vydrov,  T. Wang,  
 M. A. Watson,  J. Wenzel,  A. White,  C. F. Williams,  V. Vanovschi,  
 S. Yeganeh,  S. R. Yost,  Z.-Q. You,  I. Y. Zhang,  X. Zhang,  Y. Zhao,  
 B. R. Brooks,  G. K. L. Chan,  D. M. Chipman,  C. J. Cramer,  
 W. A. Goddard III,  M. S. Gordon,  W. J. Hehre,  A. Klamt,  
 H. F. Schaefer III,  M. W. Schmidt,  C. D. Sherrill,  D. G. Truhlar,  
 A. Warshel,  X. Xu,  A. Aspuru-Guzik,  R. Baer,  A. T. Bell,  N. A. Besley,  
 J.-D. Chai,  A. Dreuw,  B. D. Dunietz,  T. R. Furlani,  S. R. Gwaltney,  
 C.-P. Hsu,  Y. Jung,  J. Kong,  D. S. Lambrecht,  W. Liang,  C. Ochsenfeld,  
 V. A. Rassolov,  L. V. Slipchenko,  J. E. Subotnik,  T. Van Voorhis,  
 J. M. Herbert,  A. I. Krylov,  P. M. W. Gill,  M. Head-Gordon

 Contributors to earlier versions of Q-Chem not listed above: 
 R. D. Adamson,  J. Baker,  E. F. C. Byrd,  A. K. Chakraborty,  C.-L. Cheng,  
 H. Dachsel,  R. J. Doerksen,  G. Hawkins,  A. Heyden,  S. Hirata,  
 G. Kedziora,  F. J. Keil,  C. Kelley,  P. P. Korambath,  W. Kurlancheek,  
 A. M. Lee,  M. S. Lee,  D. Liotard,  I. Lotan,  P. E. Maslen,  N. Nair,  
 D. Neuhauser,  R. Olson,  B. Peters,  J. Ritchie,  N. E. Schultz,  
 N. Shenvi,  A. C. Simmonett,  K. S. Thanthiriwatte,  Q. Wu,  W. Zhang

 Please cite Q-Chem as follows:
 Y. Shao et al., Mol. Phys. 113, 184-215 (2015)
 DOI: 10.1080/00268976.2014.952696

 Q-Chem 4.3.0 for Intel X86 Linux

 Parts of Q-Chem use Armadillo 5.200.1 (Boston Tea Smuggler).
 http://arma.sourceforge.net/

 Q-Chem begins on Mon Mar 20 11:45:41 2017  

Host: 
0

     Scratch files written to /scratch/qchem/qchem1325//
 Nov1815 1189b_ 19540  19532 5443   
 Parallel job on  1  processors
Processing $rem in /mnt/software/qchem/config/preferences.
 MEM_TOTAL  2000 

Checking the input file for inconsistencies... 	...done.

--------------------------------------------------------------
User input:
--------------------------------------------------------------

$comment
job3 - cvs-adc(2) calculation
$end

$molecule
read
$end

$rem
mem_total 3000
mem_static 1500
sym_ignore true
scf_guess read
method cvs-adc(2)
basis 6-31G*
ee_singlets 20
cc_rest_occ 5                  !only excitations from the lowest N orbitals
unrestricted  true
max_scf_cycles 200
$end
--------------------------------------------------------------
 ----------------------------------------------------------------
             Standard Nuclear Orientation (Angstroms)
    I     Atom           X                Y                Z
 ----------------------------------------------------------------
    1      C      -0.5893620000     2.5368020000    -0.0992760000
    2      F       0.5874730000     2.3374300000     0.0022530000
    3      F      -1.1367930000     3.2612850000     0.7878500000
    4      F      -1.1693590000     1.1223150000     0.4621780000
    5      F      -1.1302020000     2.5432180000    -1.1910700000
 ----------------------------------------------------------------
 Nuclear Repulsion Energy =   207.5374066813 hartrees
 There are       21 alpha and       21 beta electrons
 Requested basis set is 6-31G(d)
 There are 20 shells and 75 basis functions

 Total QAlloc Memory Limit   3000 MB
 Mega-Array Size      1467 MB
 MEM_STATIC part      1500 MB

                       Distance Matrix (Angstroms)
             C (  1)   F (  2)   F (  3)   F (  4)
   F (  2)  1.197914
   F (  3)  1.269468  2.108024
   F (  4)  1.628619  2.185062  2.163866
   F (  5)  1.218427  2.101613  2.105181  2.180304
 
 tim1(1): 
  0.000000000000000E+000
 tim1(2): 
  0.000000000000000E+000
 A cutoff of  1.0D-11 yielded    204 shell pairs
 There are      2979 function pairs
 
 -------------------------------------------------------
 OpenMP Integral Computing Module                       
 Release: version 1.0, May 2013, Q-Chem Inc. Pittsburgh 
 -------------------------------------------------------
 Integral Job Info:
 Integral job number is                      11
 Integral operator is                         1
 short-range coefficients                     0
 long-range coefficients              100000000
 Omega coefficients                           0
 if combine SR and LR in K                    0
 Integral screening is                        0
 Integral computing path is                   2
 max size of driver memory is            800000
 size of driver memory is                593474
 size of scratch memory is              2260544
 max col of scratch BK array               1296
 max len of scratch array in speh3          155
 max len of scratch index in speh4           18
 max int batch size is                      520
 min int batch size is                       52
 fixed nKL is                                52
 max L of basis functions is                  2
 order of int derivative is                   0
 number of shells is                         20
 number of basis is                          75
 number of cartesian basis is                75
 number of contracted shell pairs           204
 number of primitive shell pairs           1071
 maxK2 (contraction) of shell pair           36
 max number of K2 of shell pair               1
 max number of CS2 of shell pair             37
 max number of PS2 of shell pair            222
 mem total for path MDJ                   21832
 -------------------------------------------------------
 Smallest overlap matrix eigenvalue = 1.63E-03

 Scale SEOQF with 1.000000e+00/1.000000e-01/1.000000e+00

 Standard Electronic Orientation quadrupole field applied
 Nucleus-field energy     =     0.0000000108 hartrees
 Guess MOs from SCF MO coefficient file
 Reading MOs from coefficient file
 Reading MOs from coefficient file
 An unrestricted Hartree-Fock SCF calculation will be
 performed using Pulay DIIS extrapolation
 SCF converges when DIIS error is below 1.0E-08
 using 8 threads for integral computing 
 ---------------------------------------
  Cycle       Energy         DIIS Error
 ---------------------------------------
    1    -435.5625780214      2.21E-06
    2    -435.5625780260      9.50E-07
    3    -435.5625780272      5.99E-07
    4    -435.5625780276      6.35E-08
    5    -435.5625780276      2.58E-08
    6    -435.5625780276      8.03E-09 Convergence criterion met
 ---------------------------------------
 <S^2> = 0.0000
 SCF time:  CPU 7.59 s  wall 1.57 s
 SCF   energy in the final basis set = -435.5625780276
 Total energy in the final basis set = -435.5625780276
================================================================================
|                                                                              |
|                                 A D C  M A N                                 |
|                                                                              |
 ------------------------------------------------------------------------------ 
|                                                                              |
| Components:                                                                  |
|                                                                              |
| - libvmm - 1.2-release                                                       |
|   Authors:                                                                   |
|   Evgeny Epifanovsky, Ilya Kaliman                                           |
|                                                                              |
| - libtensor - 2.4-trunk                                                      |
|   Authors:                                                                   |
|   Evgeny Epifanovsky, Michael Wormit, Dmitry Zuev, Sam Manzer                |
|                                                                              |
| - libwfa - 1.1-beta                                                          |
|   Authors:                                                                   |
|   Felix Plasser, Stefanie Baeppler, Benjamin Thomitzni, Michael Wormit       |
|                                                                              |
| - libadc - 1.0-beta                                                          |
|   Authors:                                                                   |
|   Michael Wormit, Philipp H. P. Harbach, Caroline Krauter, Dirk Rehn,        |
|   Matthias Schneider, Jan Wenzel                                             |
|                                                                              |
| - adcman - 2.4-beta                                                          |
|   Authors:                                                                   |
|   Michael Wormit, Philipp H. P. Harbach, Caroline Krauter, Dirk Rehn,        |
|   Jan Wenzel, Andreas Dreuw                                                  |
|                                                                              |
| Authors of earlier versions of ADCMAN:                                       |
| Andreas Dreuw, Jan Hendrik Starcke, Dirk Rehn, Michael Wormit                |
|                                                                              |
================================================================================

 
 Alpha MOs, Unrestricted
 -- Occupied --                  
-26.440 -26.429 -26.402 -26.223 -11.628  -1.872  -1.776  -1.730
  1 A     2 A     3 A     4 A     5 A     6 A     7 A     8 A                  
 -1.488  -1.035  -0.950  -0.938  -0.896  -0.789  -0.778  -0.766
  9 A    10 A    11 A    12 A    13 A    14 A    15 A    16 A                  
 -0.745  -0.717  -0.566  -0.565  -0.561
 17 A    18 A    19 A    20 A    21 A                                          
 -- Virtual --                   
  0.236   0.382   0.479   0.511   0.653   0.692   0.732   0.740
 22 A    23 A    24 A    25 A    26 A    27 A    28 A    29 A                  
  1.253   1.265   1.290   1.307   1.312   1.437   1.534   1.553
 30 A    31 A    32 A    33 A    34 A    35 A    36 A    37 A                  
  1.558   1.566   1.588   1.626   1.717   1.718   1.779   1.896
 38 A    39 A    40 A    41 A    42 A    43 A    44 A    45 A                  
  1.908   2.000   2.029   2.046   2.066   2.136   2.170   2.230
 46 A    47 A    48 A    49 A    50 A    51 A    52 A    53 A                  
  2.259   2.303   2.316   2.347   2.387   2.454   2.469   2.476
 54 A    55 A    56 A    57 A    58 A    59 A    60 A    61 A                  
  2.769   2.947   3.026   3.173   3.266   3.306   3.516   3.542
 62 A    63 A    64 A    65 A    66 A    67 A    68 A    69 A                  
  3.574   4.350   4.720   5.031   5.260   6.435
 70 A    71 A    72 A    73 A    74 A    75 A                                  
 
 Beta MOs, Unrestricted
 -- Occupied --                  
-26.440 -26.429 -26.402 -26.223 -11.628  -1.872  -1.776  -1.730
  1 A     2 A     3 A     4 A     5 A     6 A     7 A     8 A                  
 -1.488  -1.035  -0.950  -0.938  -0.896  -0.789  -0.778  -0.766
  9 A    10 A    11 A    12 A    13 A    14 A    15 A    16 A                  
 -0.745  -0.717  -0.566  -0.565  -0.561
 17 A    18 A    19 A    20 A    21 A                                          
 -- Virtual --                   
  0.236   0.382   0.479   0.511   0.653   0.692   0.732   0.740
 22 A    23 A    24 A    25 A    26 A    27 A    28 A    29 A                  
  1.253   1.265   1.290   1.307   1.312   1.437   1.534   1.553
 30 A    31 A    32 A    33 A    34 A    35 A    36 A    37 A                  
  1.558   1.566   1.588   1.626   1.717   1.718   1.779   1.896
 38 A    39 A    40 A    41 A    42 A    43 A    44 A    45 A                  
  1.908   2.000   2.029   2.046   2.066   2.136   2.170   2.230
 46 A    47 A    48 A    49 A    50 A    51 A    52 A    53 A                  
  2.259   2.303   2.316   2.347   2.387   2.454   2.469   2.476
 54 A    55 A    56 A    57 A    58 A    59 A    60 A    61 A                  
  2.769   2.947   3.026   3.173   3.266   3.306   3.516   3.542
 62 A    63 A    64 A    65 A    66 A    67 A    68 A    69 A                  
  3.574   4.350   4.720   5.031   5.260   6.435
 70 A    71 A    72 A    73 A    74 A    75 A                                  
 

--------------------------------------------------------------------------------
                                   HF Summary                                   
--------------------------------------------------------------------------------
  Energy:                                                 -435.5625780276 a.u.
  Dip. moment [a.u.]:                  [ -55.693955,  185.292997,    0.439322]
  Total dipole [Debye]:                                             491.783730
  <r^2> [a.u.]:                        [ 164.469333,  914.134647,   90.718285]
  Total <r^2> [a.u.]:                                              1169.322265
--------------------------------------------------------------------------------

--------------------------------------------------------------------------------
                                 MP(2) Summary                                  
--------------------------------------------------------------------------------
  Energy contribution:                                      -0.8028538464 a.u.
  Total energy:                                           -436.3654318740 a.u.
  Dip. moment [a.u.]:                  [ -55.628973,  185.419910,    0.378171]
  Total dipole [Debye]:                                             492.044847
  <r^2> [a.u.]:                        [ 164.218320,  915.098694,   90.638895]
  Total <r^2> [a.u.]:                                              1169.955909
--------------------------------------------------------------------------------
  Starting Davidson ... 
--------------------------------------------------------------------------------
   It NVec Conv  Avg. Norm  Max. Norm  Conv. states           Remark
--------------------------------------------------------------------------------
        20    0  2.107e-01  1.061e+00 11.0912 n n n n n n n n Guess.
    1   40    0  7.327e-02  9.946e-01 10.9203 n n n n n n n n 
    2   60    0  1.266e-02  1.830e-01 10.9185 n n n n n n n n 
    3   80    0  3.372e-03  3.636e-02 10.9185 n n n n n n n n 
    4  100    0  2.476e-03  3.439e-02 10.9185 n n n n n n n n 
    5   40    0  1.428e-03  1.984e-02 10.9185 n n n n n n n n Subspace collapsed.
    6   60    0  2.941e-03  4.891e-02 10.9185 n n n n n n n n 
    7   80    0  2.840e-03  4.937e-02 10.9185 n n n n n n n n 
    8  100    2  1.811e-03  2.861e-02 10.9185 y y n n n n n n 
    9   40    6  8.412e-04  1.368e-02 10.9185 y y y y n n y y Subspace collapsed.
   10   60    6  5.579e-04  8.130e-03 10.9185 y y y y n n y y 
   11   80    9  3.282e-04  4.248e-03 10.9185 y y y y y n y y 
   12  100   14  4.311e-04  6.529e-03 10.9185 y y y y y y y y 
   13   40   14  2.128e-04  3.211e-03 10.9185 y y y y y y y y Subspace collapsed.
   14   60   15  2.588e-04  3.374e-03 10.9185 y y y y y y y y 
   15   80   16  2.498e-04  3.521e-03 10.9185 y y y y y y y y 
   16  100   16  3.043e-04  5.088e-03 10.9185 y y y y y y y y 
   17   39   16  1.396e-04  2.267e-03 10.9185 y y y y y y y y Subspace collapsed.
   18   57   16  1.488e-04  2.407e-03 10.9185 y y y y y y y y 
   19   60   16  1.470e-04  2.400e-03 10.9185 y y y y y y y y 
   20   62   16  1.447e-04  2.370e-03 10.9185 y y y y y y y y 
   21   64   16  1.434e-04  2.336e-03 10.9185 y y y y y y y y 
   22   78   16  1.435e-04  2.566e-03 10.9185 y y y y y y y y 
   23   91   16  2.172e-04  3.862e-03 10.9185 y y y y y y y y 
   24   91   16  2.172e-04  3.862e-03 10.9185 y y y y y y y y 
   25  100   16  2.211e-04  3.947e-03 10.9185 y y y y y y y y 
   26   20   16  2.211e-04  3.947e-03 10.9185 y y y y y y y y Subspace collapsed.
   27   20   16  2.211e-04  3.947e-03 10.9185 y y y y y y y y 
   28   21   16  2.203e-04  3.928e-03 10.9185 y y y y y y y y 
   29   21   16  2.203e-04  3.928e-03 10.9185 y y y y y y y y 
   30   21   16  2.203e-04  3.928e-03 10.9185 y y y y y y y y 
   31   41   16  1.201e-04  2.181e-03 10.9185 y y y y y y y y 
   32   52   16  1.270e-04  2.322e-03 10.9185 y y y y y y y y 
   33   63   16  1.019e-04  1.875e-03 10.9185 y y y y y y y y 
   34   74   16  1.480e-04  2.807e-03 10.9185 y y y y y y y y 
   35   76   16  1.478e-04  2.800e-03 10.9185 y y y y y y y y 
   36   76   16  1.478e-04  2.800e-03 10.9185 y y y y y y y y 
   37   90   16  3.147e-04  6.045e-03 10.9185 y y y y y y y y 
   38   91   16  3.147e-04  6.045e-03 10.9185 y y y y y y y y 
   39   98   16  2.901e-04  5.687e-03 10.9185 y y y y y y y y 
   40  100   16  2.850e-04  5.583e-03 10.9185 y y y y y y y y 
   41   26   16  1.329e-04  2.590e-03 10.9185 y y y y y y y y Subspace collapsed.
   42   32   16  7.068e-05  1.380e-03 10.9185 y y y y y y y y 
   43   38   16  3.907e-05  7.574e-04 10.9185 y y y y y y y y 
   44   44   16  3.490e-05  6.808e-04 10.9185 y y y y y y y y 
   45   50   16  4.271e-05  8.418e-04 10.9185 y y y y y y y y 
   46   56   16  4.993e-05  9.877e-04 10.9185 y y y y y y y y 
   47   57   16  4.986e-05  9.864e-04 10.9185 y y y y y y y y 
   48   57   16  4.986e-05  9.864e-04 10.9185 y y y y y y y y 
   49   57   16  4.986e-05  9.864e-04 10.9185 y y y y y y y y 
   50   77   16  5.041e-05  9.892e-04 10.9185 y y y y y y y y 
   51   77   16  5.041e-05  9.892e-04 10.9185 y y y y y y y y 
   52   77   16  5.041e-05  9.892e-04 10.9185 y y y y y y y y 
   53   77   16  5.041e-05  9.892e-04 10.9185 y y y y y y y y 
   54   97   16  4.976e-05  9.708e-04 10.9185 y y y y y y y y 
   55   97   16  4.976e-05  9.708e-04 10.9185 y y y y y y y y 
   56   97   16  4.976e-05  9.708e-04 10.9185 y y y y y y y y 
   57  100   16  5.021e-05  9.796e-04 10.9185 y y y y y y y y 
   58   22   16  5.004e-05  9.761e-04 10.9185 y y y y y y y y Subspace collapsed.
   59   24   16  5.021e-05  9.796e-04 10.9185 y y y y y y y y 
--------------------------------------------------------------------------------
  Davidson Summary: 
 ------------------------------------------------------------
  State  0: excitation energy =  10.9185 a.u.   (converged)
  State  1: excitation energy =  10.9928 a.u.   (converged)
  State  2: excitation energy =  11.1498 a.u.   (converged)
  State  3: excitation energy =  11.1883 a.u.   (converged)
  State  4: excitation energy =  11.2317 a.u.   (converged)
  State  5: excitation energy =  11.2338 a.u.   (converged)
  State  6: excitation energy =  11.2602 a.u.   (converged)
  State  7: excitation energy =  11.3114 a.u.   (converged)
  State  8: excitation energy =  11.4592 a.u.   (converged)
  State  9: excitation energy =  11.5089 a.u.   (converged)
  State 10: excitation energy =  11.5363 a.u.   (converged)
  State 11: excitation energy =  11.5471 a.u.   (converged)
  State 12: excitation energy =  11.5502 a.u.   (converged)
  State 13: excitation energy =  11.5629 a.u.   (converged)
  State 14: excitation energy =  11.6304 a.u.   (converged)
  State 15: excitation energy =  11.6454 a.u.   (converged)
  State 16: excitation energy =  12.1519 a.u.   (not converged)
  State 17: excitation energy =  12.1584 a.u.   (not converged)
  State 18: excitation energy =  12.1661 a.u.   (not converged)
  State 19: excitation energy =  12.1678 a.u.   (not converged)
 ------------------------------------------------------------


--------------------------------------------------------------------------------
                             Excited State Summary
--------------------------------------------------------------------------------

  Excited state  1 (A)                                             [converged]
  ----------------------------------------------------------------------------
  Term symbol:  2 (-) A                                     R^2 =  1.31305e-12

  Total energy:                                           -425.4469166822 a.u.
  Excitation energy:                                             297.107909 eV

  Osc. strength:                                                      0.000000
  Trans. dip. moment [a.u.]:           [   0.000000,    0.000000,   -0.000000]
  <i|r^2|0> [a.u.]:                    [  -0.000000,    0.000000,    0.000000]

  V1^2 = 0.9576, V2^2 = 0.0424

  Important amplitudes:
     core i     occ j      vir a      vir b          v   
    ------------------------------------------------------
     5 (A) B              22 (A) B                 0.6354
     5 (A) A              22 (A) A                -0.6354
    ------------------------------------------------------
  ----------------------------------------------------------------------------


  Excited state  2 (A)                                             [converged]
  ----------------------------------------------------------------------------
  Term symbol:  3 (-) A                                     R^2 =  8.58699e-13

  Total energy:                                           -425.3726098813 a.u.
  Excitation energy:                                             299.129899 eV

  Osc. strength:                                                      0.116063
  Trans. dip. moment [a.u.]:           [  -0.039419,   -0.113162,    0.038441]
  <i|r^2|0> [a.u.]:                    [   0.091777,   -1.085308,   -0.010390]

  V1^2 = 0.9520, V2^2 = 0.0480

  Important amplitudes:
     core i     occ j      vir a      vir b          v   
    ------------------------------------------------------
     5 (A) A              22 (A) A                -0.6521
     5 (A) B              22 (A) B                -0.6521
    ------------------------------------------------------
  ----------------------------------------------------------------------------


  Excited state  3 (A)                                             [converged]
  ----------------------------------------------------------------------------
  Term symbol:  4 (-) A                                     R^2 =  1.11948e-12

  Total energy:                                           -425.2156223190 a.u.
  Excitation energy:                                             303.401748 eV

  Osc. strength:                                                      0.000000
  Trans. dip. moment [a.u.]:           [   0.000000,   -0.000000,   -0.000000]
  <i|r^2|0> [a.u.]:                    [  -0.000000,   -0.000000,    0.000000]

  V1^2 = 0.9469, V2^2 = 0.0531

  Important amplitudes:
     core i     occ j      vir a      vir b          v   
    ------------------------------------------------------
     5 (A) B              24 (A) B                -0.4219
     5 (A) A              24 (A) A                 0.4219
    ------------------------------------------------------
  ----------------------------------------------------------------------------


  Excited state  4 (A)                                             [converged]
  ----------------------------------------------------------------------------
  Term symbol:  5 (-) A                                     R^2 =  1.00619e-12

  Total energy:                                           -425.1771737151 a.u.
  Excitation energy:                                             304.447988 eV

  Osc. strength:                                                      0.000000
  Trans. dip. moment [a.u.]:           [   0.000000,   -0.000000,   -0.000000]
  <i|r^2|0> [a.u.]:                    [   0.000000,   -0.000000,    0.000000]

  V1^2 = 0.9397, V2^2 = 0.0603

  Important amplitudes:
     core i     occ j      vir a      vir b          v   
    ------------------------------------------------------
     5 (A) B              23 (A) B                 0.4374
     5 (A) A              23 (A) A                -0.4374
    ------------------------------------------------------
  ----------------------------------------------------------------------------


  Excited state  5 (A)                                             [converged]
  ----------------------------------------------------------------------------
  Term symbol:  6 (-) A                                     R^2 =  2.77540e-13

  Total energy:                                           -425.1337259106 a.u.
  Excitation energy:                                             305.630263 eV

  Osc. strength:                                                      0.000000
  Trans. dip. moment [a.u.]:           [  -0.000000,    0.000000,    0.000000]
  <i|r^2|0> [a.u.]:                    [   0.000000,    0.000000,   -0.000000]

  V1^2 = 0.9531, V2^2 = 0.0469

  Important amplitudes:
     core i     occ j      vir a      vir b          v   
    ------------------------------------------------------
     5 (A) B              25 (A) B                 0.4461
     5 (A) A              25 (A) A                -0.4461
    ------------------------------------------------------
  ----------------------------------------------------------------------------


  Excited state  6 (A)                                             [converged]
  ----------------------------------------------------------------------------
  Term symbol:  7 (-) A                                     R^2 =  5.77206e-13

  Total energy:                                           -425.1316251687 a.u.
  Excitation energy:                                             305.687427 eV

  Osc. strength:                                                      0.068482
  Trans. dip. moment [a.u.]:           [   0.043802,   -0.033578,   -0.078090]
  <i|r^2|0> [a.u.]:                    [  -0.114362,   -0.339516,    0.014395]

  V1^2 = 0.9338, V2^2 = 0.0662

  Important amplitudes:
     core i     occ j      vir a      vir b          v   
    ------------------------------------------------------
     5 (A) A              23 (A) A                -0.4352
     5 (A) B              23 (A) B                -0.4352
    ------------------------------------------------------
  ----------------------------------------------------------------------------


  Excited state  7 (A)                                             [converged]
  ----------------------------------------------------------------------------
  Term symbol:  8 (-) A                                     R^2 =  1.16115e-12

  Total energy:                                           -425.1052386940 a.u.
  Excitation energy:                                             306.405439 eV

  Osc. strength:                                                      0.056672
  Trans. dip. moment [a.u.]:           [   0.016955,   -0.042752,   -0.073717]
  <i|r^2|0> [a.u.]:                    [  -0.026785,   -0.389526,    0.039870]

  V1^2 = 0.9281, V2^2 = 0.0719

  Important amplitudes:
     core i     occ j      vir a      vir b          v   
    ------------------------------------------------------
     5 (A) A              23 (A) A                 0.4574
     5 (A) B              23 (A) B                 0.4574
    ------------------------------------------------------
  ----------------------------------------------------------------------------


  Excited state  8 (A)                                             [converged]
  ----------------------------------------------------------------------------
  Term symbol:  9 (-) A                                     R^2 =  1.95794e-13

  Total energy:                                           -425.0540640102 a.u.
  Excitation energy:                                             307.797973 eV

  Osc. strength:                                                      0.116242
  Trans. dip. moment [a.u.]:           [   0.108698,   -0.021888,    0.055862]
  <i|r^2|0> [a.u.]:                    [  -0.249165,   -0.208051,   -0.012903]

  V1^2 = 0.9434, V2^2 = 0.0566

  Important amplitudes:
     core i     occ j      vir a      vir b          v   
    ------------------------------------------------------
     5 (A) A              25 (A) A                 0.5119
     5 (A) B              25 (A) B                 0.5119
    ------------------------------------------------------
  ----------------------------------------------------------------------------


  Excited state  9 (A)                                             [converged]
  ----------------------------------------------------------------------------
  Term symbol:  10 (-) A                                    R^2 =  5.52640e-13

  Total energy:                                           -424.9062677055 a.u.
  Excitation energy:                                             311.819715 eV

  Osc. strength:                                                      0.000000
  Trans. dip. moment [a.u.]:           [   0.000000,    0.000000,   -0.000000]
  <i|r^2|0> [a.u.]:                    [  -0.000000,    0.000000,    0.000000]

  V1^2 = 0.9095, V2^2 = 0.0905

  Important amplitudes:
     core i     occ j      vir a      vir b          v   
    ------------------------------------------------------
     5 (A) B              26 (A) B                -0.4940
     5 (A) A              26 (A) A                 0.4940
    ------------------------------------------------------
  ----------------------------------------------------------------------------


  Excited state 10 (A)                                             [converged]
  ----------------------------------------------------------------------------
  Term symbol:  11 (-) A                                    R^2 =  1.40325e-13

  Total energy:                                           -424.8565028462 a.u.
  Excitation energy:                                             313.173886 eV

  Osc. strength:                                                      0.020660
  Trans. dip. moment [a.u.]:           [  -0.022036,   -0.042481,    0.020061]
  <i|r^2|0> [a.u.]:                    [   0.030357,   -0.429293,   -0.027846]

  V1^2 = 0.9130, V2^2 = 0.0870

  Important amplitudes:
     core i     occ j      vir a      vir b          v   
    ------------------------------------------------------
     5 (A) A              26 (A) A                 0.5614
     5 (A) B              26 (A) B                 0.5614
    ------------------------------------------------------
  ----------------------------------------------------------------------------


  Excited state 11 (A)                                             [converged]
  ----------------------------------------------------------------------------
  Term symbol:  12 (-) A                                    R^2 =  2.41422e-12

  Total energy:                                           -424.8291137144 a.u.
  Excitation energy:                                             313.919182 eV

  Osc. strength:                                                      0.000000
  Trans. dip. moment [a.u.]:           [  -0.000000,    0.000000,    0.000000]
  <i|r^2|0> [a.u.]:                    [   0.000000,    0.000000,   -0.000000]

  V1^2 = 0.8884, V2^2 = 0.1116

  Important amplitudes:
     core i     occ j      vir a      vir b          v   
    ------------------------------------------------------
     5 (A) B              24 (A) B                -0.4203
     5 (A) A              24 (A) A                 0.4203
    ------------------------------------------------------
  ----------------------------------------------------------------------------


  Excited state 12 (A)                                             [converged]
  ----------------------------------------------------------------------------
  Term symbol:  13 (-) A                                    R^2 =  8.03363e-13

  Total energy:                                           -424.8182989772 a.u.
  Excitation energy:                                             314.213466 eV

  Osc. strength:                                                      0.000000
  Trans. dip. moment [a.u.]:           [   0.000000,    0.000000,    0.000000]
  <i|r^2|0> [a.u.]:                    [  -0.000000,    0.000000,   -0.000000]

  V1^2 = 0.8874, V2^2 = 0.1126

  Important amplitudes:
     core i     occ j      vir a      vir b          v   
    ------------------------------------------------------
     5 (A) B              25 (A) B                -0.4860
     5 (A) A              25 (A) A                 0.4860
    ------------------------------------------------------
  ----------------------------------------------------------------------------


  Excited state 13 (A)                                             [converged]
  ----------------------------------------------------------------------------
  Term symbol:  14 (-) A                                    R^2 =  4.85514e-13

  Total energy:                                           -424.8152008203 a.u.
  Excitation energy:                                             314.297771 eV

  Osc. strength:                                                      0.026840
  Trans. dip. moment [a.u.]:           [  -0.019135,    0.029471,    0.047444]
  <i|r^2|0> [a.u.]:                    [   0.040714,    0.279053,   -0.020867]

  V1^2 = 0.8920, V2^2 = 0.1080

  Important amplitudes:
     core i     occ j      vir a      vir b          v   
    ------------------------------------------------------
     5 (A) A              27 (A) A                 0.4821
     5 (A) B              27 (A) B                 0.4821
    ------------------------------------------------------
  ----------------------------------------------------------------------------


  Excited state 14 (A)                                             [converged]
  ----------------------------------------------------------------------------
  Term symbol:  15 (-) A                                    R^2 =  3.05163e-13

  Total energy:                                           -424.8025103243 a.u.
  Excitation energy:                                             314.643097 eV

  Osc. strength:                                                      0.032591
  Trans. dip. moment [a.u.]:           [   0.056589,   -0.011976,    0.029701]
  <i|r^2|0> [a.u.]:                    [  -0.126804,   -0.112949,   -0.007296]

  V1^2 = 0.8925, V2^2 = 0.1075

  Important amplitudes:
     core i     occ j      vir a      vir b          v   
    ------------------------------------------------------
     5 (A) A              25 (A) A                -0.4242
     5 (A) B              25 (A) B                -0.4242
    ------------------------------------------------------
  ----------------------------------------------------------------------------


  Excited state 15 (A)                                             [converged]
  ----------------------------------------------------------------------------
  Term symbol:  16 (-) A                                    R^2 =  1.28294e-12

  Total energy:                                           -424.7350799978 a.u.
  Excitation energy:                                             316.477970 eV

  Osc. strength:                                                      0.000000
  Trans. dip. moment [a.u.]:           [   0.000000,    0.000000,   -0.000000]
  <i|r^2|0> [a.u.]:                    [  -0.000000,    0.000000,   -0.000000]

  V1^2 = 0.8859, V2^2 = 0.1141

  Important amplitudes:
     core i     occ j      vir a      vir b          v   
    ------------------------------------------------------
     5 (A) B              28 (A) B                 0.4657
     5 (A) A              28 (A) A                -0.4657
    ------------------------------------------------------
  ----------------------------------------------------------------------------


  Excited state 16 (A)                                             [converged]
  ----------------------------------------------------------------------------
  Term symbol:  17 (-) A                                    R^2 =  3.58187e-13

  Total energy:                                           -424.7200188494 a.u.
  Excitation energy:                                             316.887804 eV

  Osc. strength:                                                      0.009759
  Trans. dip. moment [a.u.]:           [   0.014446,    0.029357,   -0.013660]
  <i|r^2|0> [a.u.]:                    [  -0.042610,    0.268654,   -0.005325]

  V1^2 = 0.8881, V2^2 = 0.1119

  Important amplitudes:
     core i     occ j      vir a      vir b          v   
    ------------------------------------------------------
     5 (A) A              28 (A) A                 0.4766
     5 (A) B              28 (A) B                 0.4766
    ------------------------------------------------------
  ----------------------------------------------------------------------------


  Excited state 17 (A)                                         [not converged]
  ----------------------------------------------------------------------------
  Term symbol:  18 (-) A                                    R^2 =  6.28698e-06

  Total energy:                                           -424.2135244366 a.u.
  Excitation energy:                                             330.670218 eV


  V1^2 = 0.8725, V2^2 = 0.1275

  Important amplitudes:
     core i     occ j      vir a      vir b          v   
    ------------------------------------------------------
     5 (A) B              30 (A) B                -0.5669
     5 (A) A              30 (A) A                 0.5669
    ------------------------------------------------------
  ----------------------------------------------------------------------------


  Excited state 18 (A)                                         [not converged]
  ----------------------------------------------------------------------------
  Term symbol:  19 (-) A                                    R^2 =  7.51987e-05

  Total energy:                                           -424.2069929211 a.u.
  Excitation energy:                                             330.847950 eV


  V1^2 = 0.8712, V2^2 = 0.1288

  Important amplitudes:
     core i     occ j      vir a      vir b          v   
    ------------------------------------------------------
     5 (A) B              30 (A) B                 0.5849
     5 (A) A              30 (A) A                 0.5849
    ------------------------------------------------------
  ----------------------------------------------------------------------------


  Excited state 19 (A)                                         [not converged]
  ----------------------------------------------------------------------------
  Term symbol:  20 (-) A                                    R^2 =  9.79623e-04

  Total energy:                                           -424.1992932394 a.u.
  Excitation energy:                                             331.057469 eV


  V1^2 = 0.8824, V2^2 = 0.1176

  Important amplitudes:
     core i     occ j      vir a      vir b          v   
    ------------------------------------------------------
     5 (A) B              33 (A) B                -0.5719
     5 (A) A              33 (A) A                 0.5718
    ------------------------------------------------------
  ----------------------------------------------------------------------------


  Excited state 20 (A)                                         [not converged]
  ----------------------------------------------------------------------------
  Term symbol:  21 (-) A                                    R^2 =  2.07391e-04

  Total energy:                                           -424.1976601331 a.u.
  Excitation energy:                                             331.101908 eV


  V1^2 = 0.8836, V2^2 = 0.1164

  Important amplitudes:
     core i     occ j      vir a      vir b          v   
    ------------------------------------------------------
     5 (A) A              33 (A) A                 0.6140
     5 (A) B              33 (A) B                 0.6139
    ------------------------------------------------------
  ----------------------------------------------------------------------------


--------------------------------------------------------------------------------
  Time of ADC calculation:  CPU 3211.77 s  wall 1957.51 s
================================================================================
 
 --------------------------------------------------------------
 
                    Orbital Energies (a.u.)
 --------------------------------------------------------------
 
 Alpha MOs
 -- Occupied --
-26.440 -26.429 -26.402 -26.223 -11.628  -1.872  -1.776  -1.730
 -1.488  -1.035  -0.950  -0.938  -0.896  -0.789  -0.778  -0.766
 -0.745  -0.717  -0.566  -0.565  -0.561
 -- Virtual --
  0.236   0.382   0.479   0.511   0.653   0.692   0.732   0.740
  1.253   1.265   1.290   1.307   1.312   1.437   1.534   1.553
  1.558   1.566   1.588   1.626   1.717   1.718   1.779   1.896
  1.908   2.000   2.029   2.046   2.066   2.136   2.170   2.230
  2.259   2.303   2.316   2.347   2.387   2.454   2.469   2.476
  2.769   2.947   3.026   3.173   3.266   3.306   3.516   3.542
  3.574   4.350   4.720   5.031   5.260   6.435
 
 Beta MOs
 -- Occupied --
-26.440 -26.429 -26.402 -26.223 -11.628  -1.872  -1.776  -1.730
 -1.488  -1.035  -0.950  -0.938  -0.896  -0.789  -0.778  -0.766
 -0.745  -0.717  -0.566  -0.565  -0.561
 -- Virtual --
  0.236   0.382   0.479   0.511   0.653   0.692   0.732   0.740
  1.253   1.265   1.290   1.307   1.312   1.437   1.534   1.553
  1.558   1.566   1.588   1.626   1.717   1.718   1.779   1.896
  1.908   2.000   2.029   2.046   2.066   2.136   2.170   2.230
  2.259   2.303   2.316   2.347   2.387   2.454   2.469   2.476
  2.769   2.947   3.026   3.173   3.266   3.306   3.516   3.542
  3.574   4.350   4.720   5.031   5.260   6.435
 --------------------------------------------------------------
 
          Ground-State Mulliken Net Atomic Charges

     Atom                 Charge (a.u.)    Spin (a.u.)
  --------------------------------------------------------
      1 C                     1.231608       0.000000
      2 F                    -0.183174       0.000000
      3 F                    -0.273045       0.000000
      4 F                    -0.564702       0.000000
      5 F                    -0.210686       0.000000
  --------------------------------------------------------
  Sum of atomic charges =     0.000000
  Sum of spin   charges =     0.000000

 -----------------------------------------------------------------
                    Cartesian Multipole Moments
 -----------------------------------------------------------------
    Charge (ESU x 10^10)
                 0.0000
    Dipole Moment (Debye)
         X       1.4211      Y       2.6236      Z      -1.3316
       Tot       3.2674
    Quadrupole Moments (Debye-Ang)
        XX     -26.0929     XY       0.7467     YY     -14.0619
        XZ       1.3024     YZ      -2.4415     ZZ     -24.3419
    Octopole Moments (Debye-Ang^2)
       XXX      52.4959    XXY     -58.2667    XYY      15.9589
       YYY    -138.1389    XXZ      -1.4698    XYZ       2.0723
       YYZ      -6.1347    XZZ      17.5178    YZZ     -56.7854
       ZZZ      -0.1444
    Hexadecapole Moments (Debye-Ang^3)
      XXXX    -147.0810   XXXY     117.0921   XXYY    -172.1297
      XYYY     112.4147   YYYY    -783.8760   XXXZ       3.1278
      XXYZ      -1.5144   XYYZ       4.6379   YYYZ     -17.2659
      XXZZ     -37.4873   XYZZ      39.9806   YYZZ    -159.5963
      XZZZ       1.4375   YZZZ       2.2794   ZZZZ     -75.5063
 -----------------------------------------------------------------
Archival summary:
1\1\tp-linux1\SP\HF\6-31G*\41\thomas\MonMar2012:18:222017MonMar2012:18:222017\0\\#,HF,6-31G*,\\0,1\C\F,1,1.19791\F,1,1.21843,2,120.857\F,1,1.26947,2,117.348,3,151.076,0\F,1,1.62862,2,100.142,3,-106.905,0\\HF=-435.562578\\@

 Total job time:  1961.22s(wall), 3223.50s(cpu) 
 Mon Mar 20 12:18:22 2017

        *************************************************************
        *                                                           *
        *  Thank you very much for using Q-Chem.  Have a nice day.  *
        *                                                           *
        *************************************************************


0 sent ACK to 0 
now end server 0 ... 
cleanup process ... done
