
Running Job 1 of 2 ddtraj1t31.inp
qchem ddtraj1t31.inp_31848.0 /scratch/qchem/qchem31848/ 1
/mnt/software/qchem/bin/mpi/mpirun_qchem -machinefile /mnt/software/qchem/bin/mpi/machines -np 1 /mnt/software/qchem/exe/qcprog.exe ddtraj1t31.inp_31848.0 /scratch/qchem/qchem31848/

Process 0 of 1 is on tp-linux1 - thread support 0
initial socket setup ...start
initial socket setup ...done 
now start server 0 ... 

cmd = ssh tp-linux1 /mnt/software/qchem/bin/get_hostid 1119323871 > /scratch/qchem/qchem31848/lic.dat
                  Welcome to Q-Chem
     A Quantum Leap Into The Future Of Chemistry


 Q-Chem 4.3, Q-Chem, Inc., Pleasanton, CA (2015)

 Y. Shao,  Z. Gan,  E. Epifanovsky,  A. T. B. Gilbert,  M. Wormit,  
 J. Kussmann,  A. W. Lange,  A. Behn,  J. Deng,  X. Feng,  D. Ghosh,  
 M. Goldey,  P. R. Horn,  L. D. Jacobson,  I. Kaliman,  R. Z. Khaliullin,  
 T. Kus,  A. Landau,  J. Liu,  E. I. Proynov,  Y. M. Rhee,  R. M. Richard,  
 M. A. Rohrdanz,  R. P. Steele,  E. J. Sundstrom,  H. L. Woodcock III,  
 P. M. Zimmerman,  D. Zuev,  B. Albrecht,  E. Alguire,  B. Austin,  
 S. A. Baeppler,  G. J. O. Beran,  Y. A. Bernard,  E. Berquist,  
 K. Brandhorst,  K. B. Bravaya,  S. T. Brown,  D. Casanova,  C.-M. Chang,  
 Y. Chen,  S. H. Chien,  K. D. Closser,  D. L. Crittenden,  M. Diedenhofen,  
 R. A. DiStasio Jr.,  H. Do,  A. D. Dutoi,  R. G. Edgar,  P.-T. Fang,  
 S. Fatehi,  Q. Feng,  L. Fusti-Molnar,  A. Ghysels,  
 A. Golubeva-Zadorozhnaya,  J. Gomes,  A. Gunina,  M. W. D. Hanson-Heine,  
 P. H. P. Harbach,  A. W. Hauser,  E. G. Hohenstein,  Z. C. Holden,  K. Hui,  
 T.-C. Jagau,  H. Ji,  B. Kaduk,  K. Khistyaev,  Jaehoon Kim,  Jihan Kim,  
 R. A. King,  P. Klunzinger,  D. Kosenkov,  T. Kowalczyk,  C. M. Krauter,  
 K. U. Lao,  A. Laurent,  K. V. Lawler,  S. Lehtola,  S. V. Levchenko,  
 C. Y. Lin,  Y.-S. Lin,  F. Liu,  E. Livshits,  R. C. Lochan,  A. Luenser,  
 P. Manohar,  S. F. Manzer,  S.-P. Mao,  N. Mardirossian,  A. V. Marenich,  
 L. A. Martinez-Martinez,  S. A. Maurer,  N. J. Mayhall,  K. Nanda,  
 C. M. Oana,  R. Olivares-Amaya,  D. P. O'Neill,  J. A. Parkhill,  
 T. M. Perrine,  R. Peverati,  P. A. Pieniazek,  F. Plasser,  A. Prociuk,  
 D. R. Rehn,  E. Rosta,  N. J. Russ,  N. Sergueev,  S. M. Sharada,  
 S. Sharma,  D. W. Small,  A. Sodt,  T. Stauch,  T. Stein,  D. Stuck,  
 Y.-C. Su,  A. J. W. Thom,  T. Tsuchimochi,  L. Vogt,  O. Vydrov,  T. Wang,  
 M. A. Watson,  J. Wenzel,  A. White,  C. F. Williams,  V. Vanovschi,  
 S. Yeganeh,  S. R. Yost,  Z.-Q. You,  I. Y. Zhang,  X. Zhang,  Y. Zhao,  
 B. R. Brooks,  G. K. L. Chan,  D. M. Chipman,  C. J. Cramer,  
 W. A. Goddard III,  M. S. Gordon,  W. J. Hehre,  A. Klamt,  
 H. F. Schaefer III,  M. W. Schmidt,  C. D. Sherrill,  D. G. Truhlar,  
 A. Warshel,  X. Xu,  A. Aspuru-Guzik,  R. Baer,  A. T. Bell,  N. A. Besley,  
 J.-D. Chai,  A. Dreuw,  B. D. Dunietz,  T. R. Furlani,  S. R. Gwaltney,  
 C.-P. Hsu,  Y. Jung,  J. Kong,  D. S. Lambrecht,  W. Liang,  C. Ochsenfeld,  
 V. A. Rassolov,  L. V. Slipchenko,  J. E. Subotnik,  T. Van Voorhis,  
 J. M. Herbert,  A. I. Krylov,  P. M. W. Gill,  M. Head-Gordon

 Contributors to earlier versions of Q-Chem not listed above: 
 R. D. Adamson,  J. Baker,  E. F. C. Byrd,  A. K. Chakraborty,  C.-L. Cheng,  
 H. Dachsel,  R. J. Doerksen,  G. Hawkins,  A. Heyden,  S. Hirata,  
 G. Kedziora,  F. J. Keil,  C. Kelley,  P. P. Korambath,  W. Kurlancheek,  
 A. M. Lee,  M. S. Lee,  D. Liotard,  I. Lotan,  P. E. Maslen,  N. Nair,  
 D. Neuhauser,  R. Olson,  B. Peters,  J. Ritchie,  N. E. Schultz,  
 N. Shenvi,  A. C. Simmonett,  K. S. Thanthiriwatte,  Q. Wu,  W. Zhang

 Please cite Q-Chem as follows:
 Y. Shao et al., Mol. Phys. 113, 184-215 (2015)
 DOI: 10.1080/00268976.2014.952696

 Q-Chem 4.3.0 for Intel X86 Linux

 Parts of Q-Chem use Armadillo 5.200.1 (Boston Tea Smuggler).
 http://arma.sourceforge.net/

 Q-Chem begins on Thu Mar 16 02:54:07 2017  

Host: 
0

     Scratch files written to /scratch/qchem/qchem31848//
 Nov1815 1189b_ 19540  19532 5443   
 Parallel job on  1  processors
Processing $rem in /mnt/software/qchem/config/preferences.
 MEM_TOTAL  2000 

Checking the input file for inconsistencies... 	...done.

--------------------------------------------------------------
User input:
--------------------------------------------------------------
$comment
XAS calculation for the 2b valence excited for water using cvs-adc(2)-x + 6-311+G* basis set
job 1 - determination of HF orbitals
$end

$molecule
0 1
6  -0.540219  2.784161  -0.212703
9  0.640437  2.507689  -0.07111
9  -1.074718  3.409181  0.715905
9  -1.411491  0.480655  0.735941
9  -1.050398  2.725806  -1.248646
$end

$rem
jobtype      sp
sym_ignore true
exchange     hf
basis        6-31G*
unrestricted true
$end

--------------------------------------------------------------
 ----------------------------------------------------------------
             Standard Nuclear Orientation (Angstroms)
    I     Atom           X                Y                Z
 ----------------------------------------------------------------
    1      C      -0.5402190000     2.7841610000    -0.2127030000
    2      F       0.6404370000     2.5076890000    -0.0711100000
    3      F      -1.0747180000     3.4091810000     0.7159050000
    4      F      -1.4114910000     0.4806550000     0.7359410000
    5      F      -1.0503980000     2.7258060000    -1.2486460000
 ----------------------------------------------------------------
 Nuclear Repulsion Energy =   186.8268546767 hartrees
 There are       21 alpha and       21 beta electrons
 Requested basis set is 6-31G(d)
 There are 20 shells and 75 basis functions

 Total QAlloc Memory Limit   2000 MB
 Mega-Array Size        61 MB
 MEM_STATIC part        62 MB

                       Distance Matrix (Angstroms)
             C (  1)   F (  2)   F (  3)   F (  4)
   F (  2)  1.220833
   F (  3)  1.240424  2.091372
   F (  4)  2.639163  2.995097  2.947895
   F (  5)  1.156229  2.071977  2.080157  3.018224
 
 tim1(1): 
  0.000000000000000E+000
 tim1(2): 
  0.000000000000000E+000
 A cutoff of  1.0D-08 yielded    187 shell pairs
 There are      2866 function pairs
 
 -------------------------------------------------------
 OpenMP Integral Computing Module                       
 Release: version 1.0, May 2013, Q-Chem Inc. Pittsburgh 
 -------------------------------------------------------
 Integral Job Info:
 Integral job number is                      11
 Integral operator is                         1
 short-range coefficients                     0
 long-range coefficients              100000000
 Omega coefficients                           0
 if combine SR and LR in K                    0
 Integral screening is                        0
 Integral computing path is                   2
 max size of driver memory is            800000
 size of driver memory is                593474
 size of scratch memory is              2260544
 max col of scratch BK array               1296
 max len of scratch array in speh3          155
 max len of scratch index in speh4           18
 max int batch size is                      520
 min int batch size is                       52
 fixed nKL is                                52
 max L of basis functions is                  2
 order of int derivative is                   0
 number of shells is                         20
 number of basis is                          75
 number of cartesian basis is                75
 number of contracted shell pairs           187
 number of primitive shell pairs            908
 maxK2 (contraction) of shell pair           36
 max number of K2 of shell pair               1
 max number of CS2 of shell pair             31
 max number of PS2 of shell pair            180
 mem total for path MDJ                   18100
 -------------------------------------------------------
 Smallest overlap matrix eigenvalue = 3.33E-03

 Scale SEOQF with 1.000000e+00/1.000000e-01/1.000000e+00

 Standard Electronic Orientation quadrupole field applied
 Nucleus-field energy     =     0.0000000098 hartrees
 Guess from superposition of atomic densities
 Warning:  Energy on first SCF cycle will be non-variational
 An unrestricted Hartree-Fock SCF calculation will be
 performed using Pulay DIIS extrapolation
 SCF converges when DIIS error is below 1.0E-05
 using 8 threads for integral computing 
 ---------------------------------------
  Cycle       Energy         DIIS Error
 ---------------------------------------
    1    -436.5308569457      9.55E-02
    2    -435.1532535194      2.08E-02
    3    -435.2642038713      1.61E-02
    4    -435.3927579359      2.23E-03
    5    -435.3955156382      6.68E-04
    6    -435.3958589606      1.69E-04
    7    -435.3958968159      4.63E-05
    8    -435.3959014502      2.14E-05
    9    -435.3959021169      7.16E-06 Convergence criterion met
 ---------------------------------------
 <S^2> = 0.0000
 SCF time:  CPU 8.34 s  wall 2.09 s
 SCF   energy in the final basis set = -435.3959021169
 Total energy in the final basis set = -435.3959021169
 
 --------------------------------------------------------------
 
                    Orbital Energies (a.u.)
 --------------------------------------------------------------
 
 Alpha MOs
 -- Occupied --
-26.562 -26.528 -26.517 -26.014 -11.737  -1.990  -1.880  -1.837
 -1.257  -1.130  -1.050  -1.044  -0.993  -0.875  -0.871  -0.854
 -0.830  -0.813  -0.369  -0.369  -0.346
 -- Virtual --
  0.044   0.225   0.410   0.431   0.575   0.603   0.667   0.707
  1.164   1.200   1.213   1.324   1.328   1.369   1.453   1.460
  1.493   1.499   1.510   1.564   1.611   1.707   1.714   1.831
  1.861   1.877   1.944   1.956   1.992   2.104   2.121   2.166
  2.182   2.198   2.280   2.292   2.382   2.382   2.417   2.426
  2.465   2.728   2.872   2.944   3.196   3.277   3.441   3.471
  3.505   4.110   4.521   5.003   5.127   5.290
 
 Beta MOs
 -- Occupied --
-26.562 -26.528 -26.517 -26.014 -11.737  -1.990  -1.880  -1.837
 -1.257  -1.130  -1.050  -1.044  -0.993  -0.875  -0.871  -0.854
 -0.830  -0.813  -0.369  -0.369  -0.346
 -- Virtual --
  0.044   0.225   0.410   0.431   0.575   0.603   0.667   0.707
  1.164   1.200   1.213   1.324   1.328   1.369   1.453   1.460
  1.493   1.499   1.510   1.564   1.611   1.707   1.714   1.831
  1.861   1.877   1.944   1.956   1.992   2.104   2.121   2.166
  2.182   2.198   2.280   2.292   2.382   2.382   2.417   2.426
  2.465   2.728   2.872   2.944   3.196   3.277   3.441   3.471
  3.505   4.110   4.521   5.003   5.127   5.290
 --------------------------------------------------------------
 
          Ground-State Mulliken Net Atomic Charges

     Atom                 Charge (a.u.)    Spin (a.u.)
  --------------------------------------------------------
      1 C                     1.093001       0.000000
      2 F                    -0.126683       0.000000
      3 F                    -0.149106       0.000000
      4 F                    -0.778866       0.000000
      5 F                    -0.038346       0.000000
  --------------------------------------------------------
  Sum of atomic charges =     0.000000
  Sum of spin   charges =     0.000000

 -----------------------------------------------------------------
                    Cartesian Multipole Moments
 -----------------------------------------------------------------
    Charge (ESU x 10^10)
                 0.0000
    Dipole Moment (Debye)
         X       3.1295      Y       8.4894      Z      -3.8871
       Tot       9.8475
    Quadrupole Moments (Debye-Ang)
        XX     -28.9886     XY      -2.9980     YY       5.3942
        XZ       4.5572     YZ      -4.8606     ZZ     -24.2747
    Octopole Moments (Debye-Ang^2)
       XXX      59.3535    XXY     -53.0581    XYY       2.2694
       YYY     -74.7720    XXZ      -6.4186    XYZ       4.1252
       YYZ     -11.3547    XZZ      18.4604    YZZ     -51.7500
       ZZZ      -3.8873
    Hexadecapole Moments (Debye-Ang^3)
      XXXX    -169.2947   XXXY      98.9235   XXYY    -167.0409
      XYYY      53.5128   YYYY    -646.7334   XXXZ      17.4684
      XXYZ       0.9595   XYYZ       9.4550   YYYZ     -14.9916
      XXZZ     -42.9151   XYZZ      30.9394   YYZZ    -156.9511
      XZZZ      12.2217   YZZZ      13.3977   ZZZZ     -84.9861
 -----------------------------------------------------------------
Archival summary:
1\1\tp-linux1\SP\HF\6-31G*\41\thomas\ThuMar1602:54:092017ThuMar1602:54:092017\0\\#,HF,6-31G*,\\0,1\C\F,1,1.15623\F,1,1.22083,2,121.279\F,1,1.24042,2,120.4,3,-163.487,0\F,1,2.63916,2,97.6045,3,100.105,0\\HF=-435.395902\\@

 Total job time:  2.40s(wall), 10.04s(cpu) 
 Thu Mar 16 02:54:09 2017

        *************************************************************
        *                                                           *
        *  Thank you very much for using Q-Chem.  Have a nice day.  *
        *                                                           *
        *************************************************************


0 sent ACK to 0 
now end server 0 ... 
cleanup process ... done

Running Job 2 of 2 ddtraj1t31.inp
qchem ddtraj1t31.inp_31848.1 /scratch/qchem/qchem31848/ 1
/mnt/software/qchem/bin/mpi/mpirun_qchem -machinefile /mnt/software/qchem/bin/mpi/machines -np 1 /mnt/software/qchem/exe/qcprog.exe ddtraj1t31.inp_31848.1 /scratch/qchem/qchem31848/

Process 0 of 1 is on tp-linux1 - thread support 0
initial socket setup ...start
initial socket setup ...done 
now start server 0 ... 

cmd = ssh tp-linux1 /mnt/software/qchem/bin/get_hostid 678600610 > /scratch/qchem/qchem31848/lic.dat
                  Welcome to Q-Chem
     A Quantum Leap Into The Future Of Chemistry


 Q-Chem 4.3, Q-Chem, Inc., Pleasanton, CA (2015)

 Y. Shao,  Z. Gan,  E. Epifanovsky,  A. T. B. Gilbert,  M. Wormit,  
 J. Kussmann,  A. W. Lange,  A. Behn,  J. Deng,  X. Feng,  D. Ghosh,  
 M. Goldey,  P. R. Horn,  L. D. Jacobson,  I. Kaliman,  R. Z. Khaliullin,  
 T. Kus,  A. Landau,  J. Liu,  E. I. Proynov,  Y. M. Rhee,  R. M. Richard,  
 M. A. Rohrdanz,  R. P. Steele,  E. J. Sundstrom,  H. L. Woodcock III,  
 P. M. Zimmerman,  D. Zuev,  B. Albrecht,  E. Alguire,  B. Austin,  
 S. A. Baeppler,  G. J. O. Beran,  Y. A. Bernard,  E. Berquist,  
 K. Brandhorst,  K. B. Bravaya,  S. T. Brown,  D. Casanova,  C.-M. Chang,  
 Y. Chen,  S. H. Chien,  K. D. Closser,  D. L. Crittenden,  M. Diedenhofen,  
 R. A. DiStasio Jr.,  H. Do,  A. D. Dutoi,  R. G. Edgar,  P.-T. Fang,  
 S. Fatehi,  Q. Feng,  L. Fusti-Molnar,  A. Ghysels,  
 A. Golubeva-Zadorozhnaya,  J. Gomes,  A. Gunina,  M. W. D. Hanson-Heine,  
 P. H. P. Harbach,  A. W. Hauser,  E. G. Hohenstein,  Z. C. Holden,  K. Hui,  
 T.-C. Jagau,  H. Ji,  B. Kaduk,  K. Khistyaev,  Jaehoon Kim,  Jihan Kim,  
 R. A. King,  P. Klunzinger,  D. Kosenkov,  T. Kowalczyk,  C. M. Krauter,  
 K. U. Lao,  A. Laurent,  K. V. Lawler,  S. Lehtola,  S. V. Levchenko,  
 C. Y. Lin,  Y.-S. Lin,  F. Liu,  E. Livshits,  R. C. Lochan,  A. Luenser,  
 P. Manohar,  S. F. Manzer,  S.-P. Mao,  N. Mardirossian,  A. V. Marenich,  
 L. A. Martinez-Martinez,  S. A. Maurer,  N. J. Mayhall,  K. Nanda,  
 C. M. Oana,  R. Olivares-Amaya,  D. P. O'Neill,  J. A. Parkhill,  
 T. M. Perrine,  R. Peverati,  P. A. Pieniazek,  F. Plasser,  A. Prociuk,  
 D. R. Rehn,  E. Rosta,  N. J. Russ,  N. Sergueev,  S. M. Sharada,  
 S. Sharma,  D. W. Small,  A. Sodt,  T. Stauch,  T. Stein,  D. Stuck,  
 Y.-C. Su,  A. J. W. Thom,  T. Tsuchimochi,  L. Vogt,  O. Vydrov,  T. Wang,  
 M. A. Watson,  J. Wenzel,  A. White,  C. F. Williams,  V. Vanovschi,  
 S. Yeganeh,  S. R. Yost,  Z.-Q. You,  I. Y. Zhang,  X. Zhang,  Y. Zhao,  
 B. R. Brooks,  G. K. L. Chan,  D. M. Chipman,  C. J. Cramer,  
 W. A. Goddard III,  M. S. Gordon,  W. J. Hehre,  A. Klamt,  
 H. F. Schaefer III,  M. W. Schmidt,  C. D. Sherrill,  D. G. Truhlar,  
 A. Warshel,  X. Xu,  A. Aspuru-Guzik,  R. Baer,  A. T. Bell,  N. A. Besley,  
 J.-D. Chai,  A. Dreuw,  B. D. Dunietz,  T. R. Furlani,  S. R. Gwaltney,  
 C.-P. Hsu,  Y. Jung,  J. Kong,  D. S. Lambrecht,  W. Liang,  C. Ochsenfeld,  
 V. A. Rassolov,  L. V. Slipchenko,  J. E. Subotnik,  T. Van Voorhis,  
 J. M. Herbert,  A. I. Krylov,  P. M. W. Gill,  M. Head-Gordon

 Contributors to earlier versions of Q-Chem not listed above: 
 R. D. Adamson,  J. Baker,  E. F. C. Byrd,  A. K. Chakraborty,  C.-L. Cheng,  
 H. Dachsel,  R. J. Doerksen,  G. Hawkins,  A. Heyden,  S. Hirata,  
 G. Kedziora,  F. J. Keil,  C. Kelley,  P. P. Korambath,  W. Kurlancheek,  
 A. M. Lee,  M. S. Lee,  D. Liotard,  I. Lotan,  P. E. Maslen,  N. Nair,  
 D. Neuhauser,  R. Olson,  B. Peters,  J. Ritchie,  N. E. Schultz,  
 N. Shenvi,  A. C. Simmonett,  K. S. Thanthiriwatte,  Q. Wu,  W. Zhang

 Please cite Q-Chem as follows:
 Y. Shao et al., Mol. Phys. 113, 184-215 (2015)
 DOI: 10.1080/00268976.2014.952696

 Q-Chem 4.3.0 for Intel X86 Linux

 Parts of Q-Chem use Armadillo 5.200.1 (Boston Tea Smuggler).
 http://arma.sourceforge.net/

 Q-Chem begins on Thu Mar 16 02:54:12 2017  

Host: 
0

     Scratch files written to /scratch/qchem/qchem31848//
 Nov1815 1189b_ 19540  19532 5443   
 Parallel job on  1  processors
Processing $rem in /mnt/software/qchem/config/preferences.
 MEM_TOTAL  2000 

Checking the input file for inconsistencies... 	...done.

--------------------------------------------------------------
User input:
--------------------------------------------------------------

$comment
job3 - cvs-adc(2) calculation
$end

$molecule
read
$end

$rem
mem_total 3000
mem_static 1500
sym_ignore true
scf_guess read
method cvs-adc(2)
basis 6-31G*
ee_singlets 20
cc_rest_occ 5                  !only excitations from the lowest N orbitals
unrestricted  true
max_scf_cycles 200
$end
--------------------------------------------------------------
 ----------------------------------------------------------------
             Standard Nuclear Orientation (Angstroms)
    I     Atom           X                Y                Z
 ----------------------------------------------------------------
    1      C      -0.5402190000     2.7841610000    -0.2127030000
    2      F       0.6404370000     2.5076890000    -0.0711100000
    3      F      -1.0747180000     3.4091810000     0.7159050000
    4      F      -1.4114910000     0.4806550000     0.7359410000
    5      F      -1.0503980000     2.7258060000    -1.2486460000
 ----------------------------------------------------------------
 Nuclear Repulsion Energy =   186.8268546767 hartrees
 There are       21 alpha and       21 beta electrons
 Requested basis set is 6-31G(d)
 There are 20 shells and 75 basis functions

 Total QAlloc Memory Limit   3000 MB
 Mega-Array Size      1467 MB
 MEM_STATIC part      1500 MB

                       Distance Matrix (Angstroms)
             C (  1)   F (  2)   F (  3)   F (  4)
   F (  2)  1.220833
   F (  3)  1.240424  2.091372
   F (  4)  2.639163  2.995097  2.947895
   F (  5)  1.156229  2.071977  2.080157  3.018224
 
 tim1(1): 
  0.000000000000000E+000
 tim1(2): 
  0.000000000000000E+000
 A cutoff of  1.0D-11 yielded    197 shell pairs
 There are      2954 function pairs
 
 -------------------------------------------------------
 OpenMP Integral Computing Module                       
 Release: version 1.0, May 2013, Q-Chem Inc. Pittsburgh 
 -------------------------------------------------------
 Integral Job Info:
 Integral job number is                      11
 Integral operator is                         1
 short-range coefficients                     0
 long-range coefficients              100000000
 Omega coefficients                           0
 if combine SR and LR in K                    0
 Integral screening is                        0
 Integral computing path is                   2
 max size of driver memory is            800000
 size of driver memory is                593474
 size of scratch memory is              2260544
 max col of scratch BK array               1296
 max len of scratch array in speh3          155
 max len of scratch index in speh4           18
 max int batch size is                      520
 min int batch size is                       52
 fixed nKL is                                52
 max L of basis functions is                  2
 order of int derivative is                   0
 number of shells is                         20
 number of basis is                          75
 number of cartesian basis is                75
 number of contracted shell pairs           197
 number of primitive shell pairs           1003
 maxK2 (contraction) of shell pair           36
 max number of K2 of shell pair               1
 max number of CS2 of shell pair             32
 max number of PS2 of shell pair            192
 mem total for path MDJ                   21832
 -------------------------------------------------------
 Smallest overlap matrix eigenvalue = 3.33E-03

 Scale SEOQF with 1.000000e+00/1.000000e-01/1.000000e+00

 Standard Electronic Orientation quadrupole field applied
 Nucleus-field energy     =     0.0000000098 hartrees
 Guess MOs from SCF MO coefficient file
 Reading MOs from coefficient file
 Reading MOs from coefficient file
 An unrestricted Hartree-Fock SCF calculation will be
 performed using Pulay DIIS extrapolation
 SCF converges when DIIS error is below 1.0E-08
 using 8 threads for integral computing 
 ---------------------------------------
  Cycle       Energy         DIIS Error
 ---------------------------------------
    1    -435.3959022807      2.64E-06
    2    -435.3959022883      1.40E-06
    3    -435.3959022908      7.73E-07
    4    -435.3959022926      9.17E-08
    5    -435.3959022926      5.63E-08
    6    -435.3959022926      2.19E-08
    7    -435.3959022926      5.79E-09 Convergence criterion met
 ---------------------------------------
 <S^2> = 0.0000
 SCF time:  CPU 6.82 s  wall 1.82 s
 SCF   energy in the final basis set = -435.3959022926
 Total energy in the final basis set = -435.3959022926
================================================================================
|                                                                              |
|                                 A D C  M A N                                 |
|                                                                              |
 ------------------------------------------------------------------------------ 
|                                                                              |
| Components:                                                                  |
|                                                                              |
| - libvmm - 1.2-release                                                       |
|   Authors:                                                                   |
|   Evgeny Epifanovsky, Ilya Kaliman                                           |
|                                                                              |
| - libtensor - 2.4-trunk                                                      |
|   Authors:                                                                   |
|   Evgeny Epifanovsky, Michael Wormit, Dmitry Zuev, Sam Manzer                |
|                                                                              |
| - libwfa - 1.1-beta                                                          |
|   Authors:                                                                   |
|   Felix Plasser, Stefanie Baeppler, Benjamin Thomitzni, Michael Wormit       |
|                                                                              |
| - libadc - 1.0-beta                                                          |
|   Authors:                                                                   |
|   Michael Wormit, Philipp H. P. Harbach, Caroline Krauter, Dirk Rehn,        |
|   Matthias Schneider, Jan Wenzel                                             |
|                                                                              |
| - adcman - 2.4-beta                                                          |
|   Authors:                                                                   |
|   Michael Wormit, Philipp H. P. Harbach, Caroline Krauter, Dirk Rehn,        |
|   Jan Wenzel, Andreas Dreuw                                                  |
|                                                                              |
| Authors of earlier versions of ADCMAN:                                       |
| Andreas Dreuw, Jan Hendrik Starcke, Dirk Rehn, Michael Wormit                |
|                                                                              |
================================================================================

 
 Alpha MOs, Unrestricted
 -- Occupied --                  
-26.562 -26.528 -26.517 -26.014 -11.737  -1.990  -1.880  -1.837
  1 A     2 A     3 A     4 A     5 A     6 A     7 A     8 A                  
 -1.257  -1.130  -1.050  -1.044  -0.993  -0.875  -0.871  -0.854
  9 A    10 A    11 A    12 A    13 A    14 A    15 A    16 A                  
 -0.830  -0.813  -0.369  -0.369  -0.346
 17 A    18 A    19 A    20 A    21 A                                          
 -- Virtual --                   
  0.044   0.225   0.410   0.431   0.575   0.603   0.667   0.707
 22 A    23 A    24 A    25 A    26 A    27 A    28 A    29 A                  
  1.164   1.200   1.213   1.324   1.328   1.369   1.453   1.460
 30 A    31 A    32 A    33 A    34 A    35 A    36 A    37 A                  
  1.493   1.499   1.510   1.564   1.611   1.707   1.714   1.831
 38 A    39 A    40 A    41 A    42 A    43 A    44 A    45 A                  
  1.861   1.877   1.944   1.956   1.992   2.104   2.121   2.166
 46 A    47 A    48 A    49 A    50 A    51 A    52 A    53 A                  
  2.182   2.198   2.280   2.292   2.383   2.383   2.417   2.426
 54 A    55 A    56 A    57 A    58 A    59 A    60 A    61 A                  
  2.465   2.728   2.872   2.944   3.195   3.277   3.441   3.471
 62 A    63 A    64 A    65 A    66 A    67 A    68 A    69 A                  
  3.505   4.110   4.521   5.003   5.127   5.290
 70 A    71 A    72 A    73 A    74 A    75 A                                  
 
 Beta MOs, Unrestricted
 -- Occupied --                  
-26.562 -26.528 -26.517 -26.014 -11.737  -1.990  -1.880  -1.837
  1 A     2 A     3 A     4 A     5 A     6 A     7 A     8 A                  
 -1.257  -1.130  -1.050  -1.044  -0.993  -0.875  -0.871  -0.854
  9 A    10 A    11 A    12 A    13 A    14 A    15 A    16 A                  
 -0.830  -0.813  -0.369  -0.369  -0.346
 17 A    18 A    19 A    20 A    21 A                                          
 -- Virtual --                   
  0.044   0.225   0.410   0.431   0.575   0.603   0.667   0.707
 22 A    23 A    24 A    25 A    26 A    27 A    28 A    29 A                  
  1.164   1.200   1.213   1.324   1.328   1.369   1.453   1.460
 30 A    31 A    32 A    33 A    34 A    35 A    36 A    37 A                  
  1.493   1.499   1.510   1.564   1.611   1.707   1.714   1.831
 38 A    39 A    40 A    41 A    42 A    43 A    44 A    45 A                  
  1.861   1.877   1.944   1.956   1.992   2.104   2.121   2.166
 46 A    47 A    48 A    49 A    50 A    51 A    52 A    53 A                  
  2.182   2.198   2.280   2.292   2.383   2.383   2.417   2.426
 54 A    55 A    56 A    57 A    58 A    59 A    60 A    61 A                  
  2.465   2.728   2.872   2.944   3.195   3.277   3.441   3.471
 62 A    63 A    64 A    65 A    66 A    67 A    68 A    69 A                  
  3.505   4.110   4.521   5.003   5.127   5.290
 70 A    71 A    72 A    73 A    74 A    75 A                                  
 

--------------------------------------------------------------------------------
                                   HF Summary                                   
--------------------------------------------------------------------------------
  Energy:                                                 -435.3959022926 a.u.
  Dip. moment [a.u.]:                  [ -56.613288,  183.392746,    1.364348]
  Total dipole [Debye]:                                             487.855370
  <r^2> [a.u.]:                        [ 177.602493,  983.950326,  103.168155]
  Total <r^2> [a.u.]:                                              1264.720973
--------------------------------------------------------------------------------

--------------------------------------------------------------------------------
                                 MP(2) Summary                                  
--------------------------------------------------------------------------------
  Energy contribution:                                      -0.8047107678 a.u.
  Total energy:                                           -436.2006130604 a.u.
  Dip. moment [a.u.]:                  [ -56.479491,  183.753715,    1.191469]
  Total dipole [Debye]:                                             488.629154
  <r^2> [a.u.]:                        [ 176.986256,  985.957190,  102.905301]
  Total <r^2> [a.u.]:                                              1265.848746
--------------------------------------------------------------------------------
  Starting Davidson ... 
--------------------------------------------------------------------------------
   It NVec Conv  Avg. Norm  Max. Norm  Conv. states           Remark
--------------------------------------------------------------------------------
        20    0  2.085e-01  1.061e+00 10.9991 n n n n n n n n Guess.
    1   40    0  4.789e-02  6.328e-01 10.8432 n n n n n n n n 
    2   60    0  9.811e-03  1.134e-01 10.8418 n n n n n n n n 
    3   80    0  2.874e-03  3.363e-02 10.8418 n n n n n n n n 
    4  100    0  1.347e-02  2.684e-01 10.8418 n n n n n n n n 
    5   40    0  2.976e-03  5.491e-02 10.8418 n n n n n n n n Subspace collapsed.
    6   60    0  1.791e-03  2.362e-02 10.8418 n n n n n n n n 
    7   80    0  1.338e-03  2.309e-02 10.8418 n n n n n n n n 
    8  100    1  7.828e-04  1.409e-02 10.8418 y n n n n n n n 
    9   40    6  3.441e-04  6.228e-03 10.8418 y y n y n y y y Subspace collapsed.
   10   60    7  1.756e-04  3.084e-03 10.8418 y y n y y y y y 
   11   80   11  1.082e-02  2.164e-01 10.8418 y y y y y y y y 
   12  100   14  8.710e-03  1.742e-01 10.8418 y y y y y y y y 
   13   40   14  6.743e-03  1.349e-01 10.8418 y y y y y y y y Subspace collapsed.
   14   60   14  5.863e-03  1.171e-01 10.8418 y y y y y y y y 
   15   80   14  4.591e-03  9.182e-02 10.8418 y y y y y y y y 
   16   99   15  2.924e-03  5.848e-02 10.8418 y y y y y y y y 
   17  100   15  2.917e-03  5.834e-02 10.8418 y y y y y y y y 
   18   38   16  1.858e-03  3.716e-02 10.8418 y y y y y y y y Subspace collapsed.
   19   56   16  1.591e-03  3.182e-02 10.8418 y y y y y y y y 
   20   72   16  1.550e-03  3.100e-02 10.8418 y y y y y y y y 
   21   86   16  1.028e-03  2.056e-02 10.8418 y y y y y y y y 
   22  100   16  5.983e-04  1.197e-02 10.8418 y y y y y y y y 
   23   33   16  3.553e-04  7.107e-03 10.8418 y y y y y y y y Subspace collapsed.
   24   45   16  2.131e-04  4.262e-03 10.8418 y y y y y y y y 
   25   57   16  1.977e-04  3.954e-03 10.8418 y y y y y y y y 
   26   58   16  1.988e-04  3.977e-03 10.8418 y y y y y y y y 
   27   59   16  2.033e-04  4.067e-03 10.8418 y y y y y y y y 
   28   60   16  2.033e-04  4.066e-03 10.8418 y y y y y y y y 
   29   60   16  2.033e-04  4.066e-03 10.8418 y y y y y y y y 
   30   80   16  2.072e-04  4.144e-03 10.8418 y y y y y y y y 
   31   86   16  2.158e-04  4.317e-03 10.8418 y y y y y y y y 
   32   92   17  1.579e-04  3.159e-03 10.8418 y y y y y y y y 
   33   98   17  1.131e-04  2.261e-03 10.8418 y y y y y y y y 
   34  100   17  1.135e-04  2.271e-03 10.8418 y y y y y y y y 
   35   26   17  6.920e-05  1.384e-03 10.8418 y y y y y y y y Subspace collapsed.
   36   32   17  6.596e-05  1.319e-03 10.8418 y y y y y y y y 
   37   38   18  5.265e-05  1.053e-03 10.8418 y y y y y y y y 
   38   44   18  3.321e-05  6.642e-04 10.8418 y y y y y y y y 
   39   50   18  2.667e-05  5.334e-04 10.8418 y y y y y y y y 
   40   55   18  2.394e-05  4.788e-04 10.8418 y y y y y y y y 
   41   60   18  1.526e-05  3.053e-04 10.8418 y y y y y y y y 
   42   65   19  9.479e-06  1.896e-04 10.8418 y y y y y y y y 
   43   70   19  6.688e-06  1.338e-04 10.8418 y y y y y y y y 
   44   70   19  6.688e-06  1.338e-04 10.8418 y y y y y y y y 
   45   71   19  6.687e-06  1.337e-04 10.8418 y y y y y y y y 
   46   71   19  6.687e-06  1.337e-04 10.8418 y y y y y y y y 
   47   71   19  6.687e-06  1.337e-04 10.8418 y y y y y y y y 
   48   91   19  3.384e-06  6.767e-05 10.8418 y y y y y y y y 
   49   91   19  3.384e-06  6.767e-05 10.8418 y y y y y y y y 
   50   92   19  3.361e-06  6.722e-05 10.8418 y y y y y y y y 
   51   92   19  3.361e-06  6.722e-05 10.8418 y y y y y y y y 
   52   92   19  3.361e-06  6.722e-05 10.8418 y y y y y y y y 
   53   93   19  3.288e-06  6.575e-05 10.8418 y y y y y y y y 
   54   93   19  3.288e-06  6.575e-05 10.8418 y y y y y y y y 
   55   93   19  3.288e-06  6.575e-05 10.8418 y y y y y y y y 
   56   93   19  3.288e-06  6.575e-05 10.8418 y y y y y y y y 
   57  100   19  3.220e-06  6.439e-05 10.8418 y y y y y y y y 
   58   20   19  3.220e-06  6.439e-05 10.8418 y y y y y y y y Subspace collapsed.
   59   20   19  3.220e-06  6.439e-05 10.8418 y y y y y y y y 
--------------------------------------------------------------------------------
  Davidson Summary: 
 ------------------------------------------------------------
  State  0: excitation energy =  10.8418 a.u.   (converged)
  State  1: excitation energy =  10.9148 a.u.   (converged)
  State  2: excitation energy =  11.1531 a.u.   (converged)
  State  3: excitation energy =  11.2127 a.u.   (converged)
  State  4: excitation energy =  11.2129 a.u.   (converged)
  State  5: excitation energy =  11.2909 a.u.   (converged)
  State  6: excitation energy =  11.2936 a.u.   (converged)
  State  7: excitation energy =  11.3654 a.u.   (converged)
  State  8: excitation energy =  11.4952 a.u.   (converged)
  State  9: excitation energy =  11.5462 a.u.   (converged)
  State 10: excitation energy =  11.5659 a.u.   (converged)
  State 11: excitation energy =  11.5754 a.u.   (converged)
  State 12: excitation energy =  11.5783 a.u.   (converged)
  State 13: excitation energy =  11.5942 a.u.   (converged)
  State 14: excitation energy =  11.6445 a.u.   (converged)
  State 15: excitation energy =  11.6825 a.u.   (converged)
  State 16: excitation energy =  12.1725 a.u.   (converged)
  State 17: excitation energy =  12.1731 a.u.   (converged)
  State 18: excitation energy =  12.1735 a.u.   (not converged)
  State 19: excitation energy =  12.1793 a.u.   (converged)
 ------------------------------------------------------------


--------------------------------------------------------------------------------
                             Excited State Summary
--------------------------------------------------------------------------------

  Excited state  1 (A)                                             [converged]
  ----------------------------------------------------------------------------
  Term symbol:  2 (-) A                                     R^2 =  1.06641e-13

  Total energy:                                           -425.3588440033 a.u.
  Excitation energy:                                             295.019540 eV

  Osc. strength:                                                      0.000000
  Trans. dip. moment [a.u.]:           [  -0.000000,   -0.000000,    0.000000]
  <i|r^2|0> [a.u.]:                    [   0.000000,   -0.000000,   -0.000000]

  V1^2 = 0.9592, V2^2 = 0.0408

  Important amplitudes:
     core i     occ j      vir a      vir b          v   
    ------------------------------------------------------
     5 (A) B              22 (A) B                -0.6616
     5 (A) A              22 (A) A                 0.6616
    ------------------------------------------------------
  ----------------------------------------------------------------------------


  Excited state  2 (A)                                             [converged]
  ----------------------------------------------------------------------------
  Term symbol:  3 (-) A                                     R^2 =  1.25690e-13

  Total energy:                                           -425.2858380458 a.u.
  Excitation energy:                                             297.006133 eV

  Osc. strength:                                                      0.110686
  Trans. dip. moment [a.u.]:           [  -0.040580,   -0.110211,    0.037657]
  <i|r^2|0> [a.u.]:                    [   0.086210,   -1.156287,   -0.026745]

  V1^2 = 0.9546, V2^2 = 0.0454

  Important amplitudes:
     core i     occ j      vir a      vir b          v   
    ------------------------------------------------------
     5 (A) A              22 (A) A                -0.6705
     5 (A) B              22 (A) B                -0.6705
    ------------------------------------------------------
  ----------------------------------------------------------------------------


  Excited state  3 (A)                                             [converged]
  ----------------------------------------------------------------------------
  Term symbol:  4 (-) A                                     R^2 =  4.73227e-14

  Total energy:                                           -425.0474846427 a.u.
  Excitation energy:                                             303.492059 eV

  Osc. strength:                                                      0.000000
  Trans. dip. moment [a.u.]:           [  -0.000000,   -0.000000,   -0.000000]
  <i|r^2|0> [a.u.]:                    [  -0.000000,   -0.000000,    0.000000]

  V1^2 = 0.9301, V2^2 = 0.0699

  Important amplitudes:
     core i     occ j      vir a      vir b          v   
    ------------------------------------------------------
     5 (A) B              23 (A) B                -0.5920
     5 (A) A              23 (A) A                 0.5920
    ------------------------------------------------------
  ----------------------------------------------------------------------------


  Excited state  4 (A)                                             [converged]
  ----------------------------------------------------------------------------
  Term symbol:  5 (-) A                                     R^2 =  1.95996e-14

  Total energy:                                           -424.9879628801 a.u.
  Excitation energy:                                             305.111729 eV

  Osc. strength:                                                      0.000000
  Trans. dip. moment [a.u.]:           [   0.000000,   -0.000000,   -0.000000]
  <i|r^2|0> [a.u.]:                    [  -0.000000,   -0.000000,    0.000000]

  V1^2 = 0.9538, V2^2 = 0.0462

  Important amplitudes:
     core i     occ j      vir a      vir b          v   
    ------------------------------------------------------
     5 (A) B              27 (A) B                 0.4813
     5 (A) A              27 (A) A                -0.4813
    ------------------------------------------------------
  ----------------------------------------------------------------------------


  Excited state  5 (A)                                             [converged]
  ----------------------------------------------------------------------------
  Term symbol:  6 (-) A                                     R^2 =  2.68137e-14

  Total energy:                                           -424.9876907139 a.u.
  Excitation energy:                                             305.119135 eV

  Osc. strength:                                                      0.005310
  Trans. dip. moment [a.u.]:           [   0.004743,    0.013952,    0.022206]
  <i|r^2|0> [a.u.]:                    [   0.006026,    0.172786,   -0.002590]

  V1^2 = 0.9161, V2^2 = 0.0839

  Important amplitudes:
     core i     occ j      vir a      vir b          v   
    ------------------------------------------------------
     5 (A) A              23 (A) A                 0.6420
     5 (A) B              23 (A) B                 0.6420
    ------------------------------------------------------
  ----------------------------------------------------------------------------


  Excited state  6 (A)                                             [converged]
  ----------------------------------------------------------------------------
  Term symbol:  7 (-) A                                     R^2 =  3.79415e-14

  Total energy:                                           -424.9096873642 a.u.
  Excitation energy:                                             307.241714 eV

  Osc. strength:                                                      0.000000
  Trans. dip. moment [a.u.]:           [  -0.000000,    0.000000,    0.000000]
  <i|r^2|0> [a.u.]:                    [   0.000000,    0.000000,   -0.000000]

  V1^2 = 0.9492, V2^2 = 0.0508

  Important amplitudes:
     core i     occ j      vir a      vir b          v   
    ------------------------------------------------------
     5 (A) B              25 (A) B                 0.4144
     5 (A) A              25 (A) A                -0.4144
    ------------------------------------------------------
  ----------------------------------------------------------------------------


  Excited state  7 (A)                                             [converged]
  ----------------------------------------------------------------------------
  Term symbol:  8 (-) A                                     R^2 =  3.48374e-14

  Total energy:                                           -424.9069846474 a.u.
  Excitation energy:                                             307.315258 eV

  Osc. strength:                                                      0.122383
  Trans. dip. moment [a.u.]:           [  -0.099424,    0.056035,    0.056830]
  <i|r^2|0> [a.u.]:                    [   0.208416,    0.586103,   -0.050209]

  V1^2 = 0.9455, V2^2 = 0.0545

  Important amplitudes:
     core i     occ j      vir a      vir b          v   
    ------------------------------------------------------
     5 (A) A              24 (A) A                -0.5198
     5 (A) B              24 (A) B                -0.5198
    ------------------------------------------------------
  ----------------------------------------------------------------------------


  Excited state  8 (A)                                             [converged]
  ----------------------------------------------------------------------------
  Term symbol:  9 (-) A                                     R^2 =  8.11641e-14

  Total energy:                                           -424.8352573192 a.u.
  Excitation energy:                                             309.267058 eV

  Osc. strength:                                                      0.107182
  Trans. dip. moment [a.u.]:           [   0.066431,    0.012214,    0.097895]
  <i|r^2|0> [a.u.]:                    [  -0.138980,    0.126782,   -0.070645]

  V1^2 = 0.9391, V2^2 = 0.0609

  Important amplitudes:
     core i     occ j      vir a      vir b          v   
    ------------------------------------------------------
     5 (A) A              25 (A) A                 0.4929
     5 (A) B              25 (A) B                 0.4929
    ------------------------------------------------------
  ----------------------------------------------------------------------------


  Excited state  9 (A)                                             [converged]
  ----------------------------------------------------------------------------
  Term symbol:  10 (-) A                                    R^2 =  7.74318e-14

  Total energy:                                           -424.7054097654 a.u.
  Excitation energy:                                             312.800390 eV

  Osc. strength:                                                      0.000000
  Trans. dip. moment [a.u.]:           [  -0.000000,   -0.000000,    0.000000]
  <i|r^2|0> [a.u.]:                    [   0.000000,   -0.000000,   -0.000000]

  V1^2 = 0.9112, V2^2 = 0.0888

  Important amplitudes:
     core i     occ j      vir a      vir b          v   
    ------------------------------------------------------
     5 (A) B              26 (A) B                 0.5309
     5 (A) A              26 (A) A                -0.5309
    ------------------------------------------------------
  ----------------------------------------------------------------------------


  Excited state 10 (A)                                             [converged]
  ----------------------------------------------------------------------------
  Term symbol:  11 (-) A                                    R^2 =  7.24437e-14

  Total energy:                                           -424.6544417052 a.u.
  Excitation energy:                                             314.187301 eV

  Osc. strength:                                                      0.023413
  Trans. dip. moment [a.u.]:           [  -0.015456,   -0.047433,    0.023516]
  <i|r^2|0> [a.u.]:                    [   0.013434,   -0.519710,   -0.035443]

  V1^2 = 0.9104, V2^2 = 0.0896

  Important amplitudes:
     core i     occ j      vir a      vir b          v   
    ------------------------------------------------------
     5 (A) A              26 (A) A                 0.6013
     5 (A) B              26 (A) B                 0.6013
    ------------------------------------------------------
  ----------------------------------------------------------------------------


  Excited state 11 (A)                                             [converged]
  ----------------------------------------------------------------------------
  Term symbol:  12 (-) A                                    R^2 =  9.85641e-14

  Total energy:                                           -424.6347377498 a.u.
  Excitation energy:                                             314.723473 eV

  Osc. strength:                                                      0.000000
  Trans. dip. moment [a.u.]:           [   0.000000,   -0.000000,   -0.000000]
  <i|r^2|0> [a.u.]:                    [  -0.000000,   -0.000000,    0.000000]

  V1^2 = 0.8904, V2^2 = 0.1096

  Important amplitudes:
     core i     occ j      vir a      vir b          v   
    ------------------------------------------------------
     5 (A) B              24 (A) B                -0.4696
     5 (A) A              24 (A) A                 0.4696
    ------------------------------------------------------
  ----------------------------------------------------------------------------


  Excited state 12 (A)                                             [converged]
  ----------------------------------------------------------------------------
  Term symbol:  13 (-) A                                    R^2 =  1.17628e-13

  Total energy:                                           -424.6251855464 a.u.
  Excitation energy:                                             314.983402 eV

  Osc. strength:                                                      0.000000
  Trans. dip. moment [a.u.]:           [   0.000000,    0.000000,    0.000000]
  <i|r^2|0> [a.u.]:                    [  -0.000000,    0.000000,   -0.000000]

  V1^2 = 0.8917, V2^2 = 0.1083

  Important amplitudes:
     core i     occ j      vir a      vir b          v   
    ------------------------------------------------------
     5 (A) B              25 (A) B                -0.5069
     5 (A) A              25 (A) A                 0.5069
    ------------------------------------------------------
  ----------------------------------------------------------------------------


  Excited state 13 (A)                                             [converged]
  ----------------------------------------------------------------------------
  Term symbol:  14 (-) A                                    R^2 =  1.55953e-13

  Total energy:                                           -424.6222930331 a.u.
  Excitation energy:                                             315.062111 eV

  Osc. strength:                                                      0.025108
  Trans. dip. moment [a.u.]:           [   0.043730,   -0.026162,   -0.025613]
  <i|r^2|0> [a.u.]:                    [  -0.089224,   -0.273655,    0.023179]

  V1^2 = 0.8936, V2^2 = 0.1064

  Important amplitudes:
     core i     occ j      vir a      vir b          v   
    ------------------------------------------------------
     5 (A) A              27 (A) A                 0.5012
     5 (A) B              27 (A) B                 0.5012
    ------------------------------------------------------
  ----------------------------------------------------------------------------


  Excited state 14 (A)                                             [converged]
  ----------------------------------------------------------------------------
  Term symbol:  15 (-) A                                    R^2 =  1.79135e-13

  Total energy:                                           -424.6064561545 a.u.
  Excitation energy:                                             315.493055 eV

  Osc. strength:                                                      0.037695
  Trans. dip. moment [a.u.]:           [   0.036467,    0.004013,    0.059421]
  <i|r^2|0> [a.u.]:                    [  -0.079546,    0.036893,   -0.048744]

  V1^2 = 0.8982, V2^2 = 0.1018

  Important amplitudes:
     core i     occ j      vir a      vir b          v   
    ------------------------------------------------------
     5 (A) A              25 (A) A                -0.4398
     5 (A) B              25 (A) B                -0.4398
    ------------------------------------------------------
  ----------------------------------------------------------------------------


  Excited state 15 (A)                                             [converged]
  ----------------------------------------------------------------------------
  Term symbol:  16 (-) A                                    R^2 =  4.27530e-13

  Total energy:                                           -424.5561425135 a.u.
  Excitation energy:                                             316.862158 eV

  Osc. strength:                                                      0.000000
  Trans. dip. moment [a.u.]:           [   0.000000,    0.000000,   -0.000000]
  <i|r^2|0> [a.u.]:                    [  -0.000000,    0.000000,   -0.000000]

  V1^2 = 0.8975, V2^2 = 0.1025

  Important amplitudes:
     core i     occ j      vir a      vir b          v   
    ------------------------------------------------------
     5 (A) B              29 (A) B                -0.4568
     5 (A) A              29 (A) A                 0.4568
    ------------------------------------------------------
  ----------------------------------------------------------------------------


  Excited state 16 (A)                                             [converged]
  ----------------------------------------------------------------------------
  Term symbol:  17 (-) A                                    R^2 =  1.47443e-12

  Total energy:                                           -424.5180686793 a.u.
  Excitation energy:                                             317.898200 eV

  Osc. strength:                                                      0.018372
  Trans. dip. moment [a.u.]:           [   0.017841,    0.043024,   -0.013766]
  <i|r^2|0> [a.u.]:                    [  -0.054494,    0.434625,   -0.005822]

  V1^2 = 0.8998, V2^2 = 0.1002

  Important amplitudes:
     core i     occ j      vir a      vir b          v   
    ------------------------------------------------------
     5 (A) A              29 (A) A                -0.5208
     5 (A) B              29 (A) B                -0.5208
    ------------------------------------------------------
  ----------------------------------------------------------------------------


  Excited state 17 (A)                                             [converged]
  ----------------------------------------------------------------------------
  Term symbol:  18 (-) A                                    R^2 =  1.31819e-07

  Total energy:                                           -424.0281310065 a.u.
  Excitation energy:                                             331.230082 eV

  Osc. strength:                                                      0.000000
  Trans. dip. moment [a.u.]:           [   0.000000,    0.000000,    0.000000]
  <i|r^2|0> [a.u.]:                    [  -0.000000,   -0.000000,   -0.000000]

  V1^2 = 0.8324, V2^2 = 0.1676

  Important amplitudes:
     core i     occ j      vir a      vir b          v   
    ------------------------------------------------------
     5 (A) A              30 (A) A                -0.6014
     5 (A) B              30 (A) B                 0.6014
    ------------------------------------------------------
  ----------------------------------------------------------------------------


  Excited state 18 (A)                                             [converged]
  ----------------------------------------------------------------------------
  Term symbol:  19 (-) A                                    R^2 =  9.81915e-09

  Total energy:                                           -424.0275281032 a.u.
  Excitation energy:                                             331.246488 eV

  Osc. strength:                                                      0.000000
  Trans. dip. moment [a.u.]:           [  -0.000000,    0.000000,   -0.000000]
  <i|r^2|0> [a.u.]:                    [   0.000000,    0.000000,    0.000000]

  V1^2 = 0.0458, V2^2 = 0.9542

  Important amplitudes:
     core i     occ j      vir a      vir b          v   
    ------------------------------------------------------
     5 (A) A   21 (A) B   22 (A) A   22 (A) B     -0.4866
     5 (A) B   21 (A) A   22 (A) A   22 (A) B     -0.4866
    ------------------------------------------------------
  ----------------------------------------------------------------------------


  Excited state 19 (A)                                         [not converged]
  ----------------------------------------------------------------------------
  Term symbol:  20 (-) A                                    R^2 =  6.43929e-05

  Total energy:                                           -424.0270878931 a.u.
  Excitation energy:                                             331.258467 eV


  V1^2 = 0.0063, V2^2 = 0.9937

  Important amplitudes:
     core i     occ j      vir a      vir b          v   
    ------------------------------------------------------
     5 (A) A   21 (A) B   22 (A) A   22 (A) B      0.4981
     5 (A) B   21 (A) A   22 (A) A   22 (A) B     -0.4981
    ------------------------------------------------------
  ----------------------------------------------------------------------------


  Excited state 20 (A)                                             [converged]
  ----------------------------------------------------------------------------
  Term symbol:  21 (-) A                                    R^2 =  3.23061e-07

  Total energy:                                           -424.0213320892 a.u.
  Excitation energy:                                             331.415090 eV

  Osc. strength:                                                      0.008080
  Trans. dip. moment [a.u.]:           [   0.013842,    0.000609,    0.028339]
  <i|r^2|0> [a.u.]:                    [  -0.029895,    0.008000,   -0.036008]

  V1^2 = 0.8709, V2^2 = 0.1291

  Important amplitudes:
     core i     occ j      vir a      vir b          v   
    ------------------------------------------------------
     5 (A) A              30 (A) A                 0.6271
     5 (A) B              30 (A) B                 0.6271
    ------------------------------------------------------
  ----------------------------------------------------------------------------


--------------------------------------------------------------------------------
  Time of ADC calculation:  CPU 3401.38 s  wall 2104.52 s
================================================================================
 
 --------------------------------------------------------------
 
                    Orbital Energies (a.u.)
 --------------------------------------------------------------
 
 Alpha MOs
 -- Occupied --
-26.562 -26.528 -26.517 -26.014 -11.737  -1.990  -1.880  -1.837
 -1.257  -1.130  -1.050  -1.044  -0.993  -0.875  -0.871  -0.854
 -0.830  -0.813  -0.369  -0.369  -0.346
 -- Virtual --
  0.044   0.225   0.410   0.431   0.575   0.603   0.667   0.707
  1.164   1.200   1.213   1.324   1.328   1.369   1.453   1.460
  1.493   1.499   1.510   1.564   1.611   1.707   1.714   1.831
  1.861   1.877   1.944   1.956   1.992   2.104   2.121   2.166
  2.182   2.198   2.280   2.292   2.383   2.383   2.417   2.426
  2.465   2.728   2.872   2.944   3.195   3.277   3.441   3.471
  3.505   4.110   4.521   5.003   5.127   5.290
 
 Beta MOs
 -- Occupied --
-26.562 -26.528 -26.517 -26.014 -11.737  -1.990  -1.880  -1.837
 -1.257  -1.130  -1.050  -1.044  -0.993  -0.875  -0.871  -0.854
 -0.830  -0.813  -0.369  -0.369  -0.346
 -- Virtual --
  0.044   0.225   0.410   0.431   0.575   0.603   0.667   0.707
  1.164   1.200   1.213   1.324   1.328   1.369   1.453   1.460
  1.493   1.499   1.510   1.564   1.611   1.707   1.714   1.831
  1.861   1.877   1.944   1.956   1.992   2.104   2.121   2.166
  2.182   2.198   2.280   2.292   2.383   2.383   2.417   2.426
  2.465   2.728   2.872   2.944   3.195   3.277   3.441   3.471
  3.505   4.110   4.521   5.003   5.127   5.290
 --------------------------------------------------------------
 
          Ground-State Mulliken Net Atomic Charges

     Atom                 Charge (a.u.)    Spin (a.u.)
  --------------------------------------------------------
      1 C                     1.093077       0.000000
      2 F                    -0.126670       0.000000
      3 F                    -0.149104       0.000000
      4 F                    -0.778988       0.000000
      5 F                    -0.038316       0.000000
  --------------------------------------------------------
  Sum of atomic charges =     0.000000
  Sum of spin   charges =     0.000000

 -----------------------------------------------------------------
                    Cartesian Multipole Moments
 -----------------------------------------------------------------
    Charge (ESU x 10^10)
                 0.0000
    Dipole Moment (Debye)
         X       3.1299      Y       8.4905      Z      -3.8877
       Tot       9.8488
    Quadrupole Moments (Debye-Ang)
        XX     -28.9890     XY      -2.9986     YY       5.3977
        XZ       4.5580     YZ      -4.8613     ZZ     -24.2747
    Octopole Moments (Debye-Ang^2)
       XXX      59.3550    XXY     -53.0567    XYY       2.2669
       YYY     -74.7611    XXZ      -6.4198    XYZ       4.1259
       YYZ     -11.3559    XZZ      18.4606    YZZ     -51.7486
       ZZZ      -3.8884
    Hexadecapole Moments (Debye-Ang^3)
      XXXX    -169.2974   XXXY      98.9224   XXYY    -167.0359
      XYYY      53.5043   YYYY    -646.6978   XXXZ      17.4702
      XXYZ       0.9586   XYYZ       9.4563   YYYZ     -14.9935
      XXZZ     -42.9154   XYZZ      30.9380   YYZZ    -156.9464
      XZZZ      12.2231   YZZZ      13.3964   ZZZZ     -84.9859
 -----------------------------------------------------------------
Archival summary:
1\1\tp-linux1\SP\HF\6-31G*\41\thomas\ThuMar1603:29:202017ThuMar1603:29:202017\0\\#,HF,6-31G*,\\0,1\C\F,1,1.15623\F,1,1.22083,2,121.279\F,1,1.24042,2,120.4,3,-163.487,0\F,1,2.63916,2,97.6045,3,100.105,0\\HF=-435.395902\\@

 Total job time:  2108.40s(wall), 3411.98s(cpu) 
 Thu Mar 16 03:29:20 2017

        *************************************************************
        *                                                           *
        *  Thank you very much for using Q-Chem.  Have a nice day.  *
        *                                                           *
        *************************************************************


0 sent ACK to 0 
now end server 0 ... 
cleanup process ... done
