
Running Job 1 of 2 ddtraj4t48.inp
qchem ddtraj4t48.inp_21141.0 /scratch/qchem/qchem21141/ 1
/mnt/software/qchem/bin/mpi/mpirun_qchem -machinefile /mnt/software/qchem/bin/mpi/machines -np 1 /mnt/software/qchem/exe/qcprog.exe ddtraj4t48.inp_21141.0 /scratch/qchem/qchem21141/

Process 0 of 1 is on tp-linux1 - thread support 0
initial socket setup ...start
initial socket setup ...done 
now start server 0 ... 

cmd = ssh tp-linux1 /mnt/software/qchem/bin/get_hostid 513578440 > /scratch/qchem/qchem21141/lic.dat
                  Welcome to Q-Chem
     A Quantum Leap Into The Future Of Chemistry


 Q-Chem 4.3, Q-Chem, Inc., Pleasanton, CA (2015)

 Y. Shao,  Z. Gan,  E. Epifanovsky,  A. T. B. Gilbert,  M. Wormit,  
 J. Kussmann,  A. W. Lange,  A. Behn,  J. Deng,  X. Feng,  D. Ghosh,  
 M. Goldey,  P. R. Horn,  L. D. Jacobson,  I. Kaliman,  R. Z. Khaliullin,  
 T. Kus,  A. Landau,  J. Liu,  E. I. Proynov,  Y. M. Rhee,  R. M. Richard,  
 M. A. Rohrdanz,  R. P. Steele,  E. J. Sundstrom,  H. L. Woodcock III,  
 P. M. Zimmerman,  D. Zuev,  B. Albrecht,  E. Alguire,  B. Austin,  
 S. A. Baeppler,  G. J. O. Beran,  Y. A. Bernard,  E. Berquist,  
 K. Brandhorst,  K. B. Bravaya,  S. T. Brown,  D. Casanova,  C.-M. Chang,  
 Y. Chen,  S. H. Chien,  K. D. Closser,  D. L. Crittenden,  M. Diedenhofen,  
 R. A. DiStasio Jr.,  H. Do,  A. D. Dutoi,  R. G. Edgar,  P.-T. Fang,  
 S. Fatehi,  Q. Feng,  L. Fusti-Molnar,  A. Ghysels,  
 A. Golubeva-Zadorozhnaya,  J. Gomes,  A. Gunina,  M. W. D. Hanson-Heine,  
 P. H. P. Harbach,  A. W. Hauser,  E. G. Hohenstein,  Z. C. Holden,  K. Hui,  
 T.-C. Jagau,  H. Ji,  B. Kaduk,  K. Khistyaev,  Jaehoon Kim,  Jihan Kim,  
 R. A. King,  P. Klunzinger,  D. Kosenkov,  T. Kowalczyk,  C. M. Krauter,  
 K. U. Lao,  A. Laurent,  K. V. Lawler,  S. Lehtola,  S. V. Levchenko,  
 C. Y. Lin,  Y.-S. Lin,  F. Liu,  E. Livshits,  R. C. Lochan,  A. Luenser,  
 P. Manohar,  S. F. Manzer,  S.-P. Mao,  N. Mardirossian,  A. V. Marenich,  
 L. A. Martinez-Martinez,  S. A. Maurer,  N. J. Mayhall,  K. Nanda,  
 C. M. Oana,  R. Olivares-Amaya,  D. P. O'Neill,  J. A. Parkhill,  
 T. M. Perrine,  R. Peverati,  P. A. Pieniazek,  F. Plasser,  A. Prociuk,  
 D. R. Rehn,  E. Rosta,  N. J. Russ,  N. Sergueev,  S. M. Sharada,  
 S. Sharma,  D. W. Small,  A. Sodt,  T. Stauch,  T. Stein,  D. Stuck,  
 Y.-C. Su,  A. J. W. Thom,  T. Tsuchimochi,  L. Vogt,  O. Vydrov,  T. Wang,  
 M. A. Watson,  J. Wenzel,  A. White,  C. F. Williams,  V. Vanovschi,  
 S. Yeganeh,  S. R. Yost,  Z.-Q. You,  I. Y. Zhang,  X. Zhang,  Y. Zhao,  
 B. R. Brooks,  G. K. L. Chan,  D. M. Chipman,  C. J. Cramer,  
 W. A. Goddard III,  M. S. Gordon,  W. J. Hehre,  A. Klamt,  
 H. F. Schaefer III,  M. W. Schmidt,  C. D. Sherrill,  D. G. Truhlar,  
 A. Warshel,  X. Xu,  A. Aspuru-Guzik,  R. Baer,  A. T. Bell,  N. A. Besley,  
 J.-D. Chai,  A. Dreuw,  B. D. Dunietz,  T. R. Furlani,  S. R. Gwaltney,  
 C.-P. Hsu,  Y. Jung,  J. Kong,  D. S. Lambrecht,  W. Liang,  C. Ochsenfeld,  
 V. A. Rassolov,  L. V. Slipchenko,  J. E. Subotnik,  T. Van Voorhis,  
 J. M. Herbert,  A. I. Krylov,  P. M. W. Gill,  M. Head-Gordon

 Contributors to earlier versions of Q-Chem not listed above: 
 R. D. Adamson,  J. Baker,  E. F. C. Byrd,  A. K. Chakraborty,  C.-L. Cheng,  
 H. Dachsel,  R. J. Doerksen,  G. Hawkins,  A. Heyden,  S. Hirata,  
 G. Kedziora,  F. J. Keil,  C. Kelley,  P. P. Korambath,  W. Kurlancheek,  
 A. M. Lee,  M. S. Lee,  D. Liotard,  I. Lotan,  P. E. Maslen,  N. Nair,  
 D. Neuhauser,  R. Olson,  B. Peters,  J. Ritchie,  N. E. Schultz,  
 N. Shenvi,  A. C. Simmonett,  K. S. Thanthiriwatte,  Q. Wu,  W. Zhang

 Please cite Q-Chem as follows:
 Y. Shao et al., Mol. Phys. 113, 184-215 (2015)
 DOI: 10.1080/00268976.2014.952696

 Q-Chem 4.3.0 for Intel X86 Linux

 Parts of Q-Chem use Armadillo 5.200.1 (Boston Tea Smuggler).
 http://arma.sourceforge.net/

 Q-Chem begins on Mon Mar 20 05:49:55 2017  

Host: 
0

     Scratch files written to /scratch/qchem/qchem21141//
 Nov1815 1189b_ 19540  19532 5443   
 Parallel job on  1  processors
Processing $rem in /mnt/software/qchem/config/preferences.
 MEM_TOTAL  2000 

Checking the input file for inconsistencies... 	...done.

--------------------------------------------------------------
User input:
--------------------------------------------------------------
$comment
XAS calculation for the 2b valence excited for water using cvs-adc(2)-x + 6-311+G* basis set
job 1 - determination of HF orbitals
$end

$molecule
0 1
6  -0.343423  2.957153  -0.300897
9  0.801866  2.766353  -0.216609
9  -1.015875  3.300549  0.702054
9  -1.866704  0.10005  1.073235
9  -0.923839  2.833085  -1.370311
$end

$rem
jobtype      sp
sym_ignore true
exchange     hf
basis        6-31G*
unrestricted true
$end

--------------------------------------------------------------
 ----------------------------------------------------------------
             Standard Nuclear Orientation (Angstroms)
    I     Atom           X                Y                Z
 ----------------------------------------------------------------
    1      C      -0.3434230000     2.9571530000    -0.3008970000
    2      F       0.8018660000     2.7663530000    -0.2166090000
    3      F      -1.0158750000     3.3005490000     0.7020540000
    4      F      -1.8667040000     0.1000500000     1.0732350000
    5      F      -0.9238390000     2.8330850000    -1.3703110000
 ----------------------------------------------------------------
 Nuclear Repulsion Energy =   174.8866246543 hartrees
 There are       21 alpha and       21 beta electrons
 Requested basis set is 6-31G(d)
 There are 20 shells and 75 basis functions

 Total QAlloc Memory Limit   2000 MB
 Mega-Array Size        61 MB
 MEM_STATIC part        62 MB

                       Distance Matrix (Angstroms)
             C (  1)   F (  2)   F (  3)   F (  4)
   F (  2)  1.164129
   F (  3)  1.255398  2.105585
   F (  4)  3.517337  3.986745  3.332398
   F (  5)  1.223079  2.076906  2.126427  3.785418
 
 tim1(1): 
  0.000000000000000E+000
 tim1(2): 
  0.000000000000000E+000
 A cutoff of  1.0D-08 yielded    173 shell pairs
 There are      2602 function pairs
 
 -------------------------------------------------------
 OpenMP Integral Computing Module                       
 Release: version 1.0, May 2013, Q-Chem Inc. Pittsburgh 
 -------------------------------------------------------
 Integral Job Info:
 Integral job number is                      11
 Integral operator is                         1
 short-range coefficients                     0
 long-range coefficients              100000000
 Omega coefficients                           0
 if combine SR and LR in K                    0
 Integral screening is                        0
 Integral computing path is                   2
 max size of driver memory is            800000
 size of driver memory is                593474
 size of scratch memory is              2260544
 max col of scratch BK array               1296
 max len of scratch array in speh3          155
 max len of scratch index in speh4           18
 max int batch size is                      520
 min int batch size is                       52
 fixed nKL is                                52
 max L of basis functions is                  2
 order of int derivative is                   0
 number of shells is                         20
 number of basis is                          75
 number of cartesian basis is                75
 number of contracted shell pairs           173
 number of primitive shell pairs            858
 maxK2 (contraction) of shell pair           36
 max number of K2 of shell pair               1
 max number of CS2 of shell pair             26
 max number of PS2 of shell pair            180
 mem total for path MDJ                   17016
 -------------------------------------------------------
 Smallest overlap matrix eigenvalue = 3.62E-03

 Scale SEOQF with 1.000000e-01/1.000000e-01/1.000000e+00

 Standard Electronic Orientation quadrupole field applied
 Nucleus-field energy     =    -0.0000000122 hartrees
 Guess from superposition of atomic densities
 Warning:  Energy on first SCF cycle will be non-variational
 An unrestricted Hartree-Fock SCF calculation will be
 performed using Pulay DIIS extrapolation
 SCF converges when DIIS error is below 1.0E-05
 using 8 threads for integral computing 
 ---------------------------------------
  Cycle       Energy         DIIS Error
 ---------------------------------------
    1    -436.4549226854      9.38E-02
    2    -435.0736686931      2.13E-02
    3    -433.8043669728      3.95E-02
    4    -435.2519213998      1.13E-02
    5    -435.2881406489      6.82E-03
    6    -435.3092294588      2.44E-03
    7    -435.3125075323      8.80E-04
    8    -435.3133014527      2.11E-04
    9    -435.3135606125      1.07E-04
   10    -435.3136353343      6.77E-05
   11    -435.3136443674      1.67E-05
   12    -435.3136447970      5.33E-06 Convergence criterion met
 ---------------------------------------
 <S^2> = 0.0000
 SCF time:  CPU 12.43 s  wall 2.85 s
 SCF   energy in the final basis set = -435.3136447970
 Total energy in the final basis set = -435.3136447970
 
 --------------------------------------------------------------
 
                    Orbital Energies (a.u.)
 --------------------------------------------------------------
 
 Alpha MOs
 -- Occupied --
-26.626 -26.593 -26.572 -25.882 -11.799  -2.043  -1.935  -1.886
 -1.185  -1.144  -1.103  -1.093  -1.049  -0.927  -0.921  -0.912
 -0.878  -0.867  -0.256  -0.256  -0.247
 -- Virtual --
 -0.032   0.146   0.350   0.367   0.495   0.538   0.576   0.623
  1.118   1.154   1.179   1.279   1.284   1.372   1.404   1.411
  1.441   1.449   1.460   1.510   1.540   1.772   1.788   1.818
  1.819   1.829   1.883   1.906   1.940   2.017   2.060   2.092
  2.097   2.103   2.199   2.323   2.359   2.479   2.479   2.482
  2.482   2.485   2.818   2.873   3.115   3.203   3.368   3.394
  3.408   4.107   4.324   4.796   4.980   5.193
 
 Beta MOs
 -- Occupied --
-26.626 -26.593 -26.572 -25.882 -11.799  -2.043  -1.935  -1.886
 -1.185  -1.144  -1.103  -1.093  -1.049  -0.927  -0.921  -0.912
 -0.878  -0.867  -0.256  -0.256  -0.247
 -- Virtual --
 -0.032   0.146   0.350   0.367   0.495   0.538   0.576   0.623
  1.118   1.154   1.179   1.279   1.284   1.372   1.404   1.411
  1.441   1.449   1.460   1.510   1.540   1.772   1.788   1.818
  1.819   1.829   1.883   1.906   1.940   2.017   2.060   2.092
  2.097   2.103   2.199   2.323   2.359   2.479   2.479   2.482
  2.482   2.485   2.818   2.873   3.115   3.203   3.368   3.394
  3.408   4.107   4.324   4.796   4.980   5.193
 --------------------------------------------------------------
 
          Ground-State Mulliken Net Atomic Charges

     Atom                 Charge (a.u.)    Spin (a.u.)
  --------------------------------------------------------
      1 C                     1.202638       0.000000
      2 F                    -0.032415       0.000000
      3 F                    -0.120537       0.000000
      4 F                    -0.945847       0.000000
      5 F                    -0.103839       0.000000
  --------------------------------------------------------
  Sum of atomic charges =     0.000000
  Sum of spin   charges =     0.000000

 -----------------------------------------------------------------
                    Cartesian Multipole Moments
 -----------------------------------------------------------------
    Charge (ESU x 10^10)
                 0.0000
    Dipole Moment (Debye)
         X       7.0730      Y      12.6761      Z      -6.1547
       Tot      15.7667
    Quadrupole Moments (Debye-Ang)
        XX     -37.3855     XY      -2.8143     YY      16.4948
        XZ       9.3298     YZ      -4.6031     ZZ     -27.1703
    Octopole Moments (Debye-Ang^2)
       XXX      80.1021    XXY     -50.5210    XYY       5.9896
       YYY     -34.5336    XXZ     -17.7380    XYZ       2.1129
       YYZ     -13.4471    XZZ      25.5975    YZZ     -49.7284
       ZZZ      -8.9986
    Hexadecapole Moments (Debye-Ang^3)
      XXXX    -252.4834   XXXY      68.8997   XXYY    -179.5089
      XYYY      32.7304   YYYY    -550.5100   XXXZ      58.4806
      XXYZ      10.1820   XYYZ      11.8318   YYYZ      -1.9842
      XXZZ     -69.0544   XYZZ      20.2827   YYZZ    -166.1550
      XZZZ      38.6996   YZZZ      35.5888   ZZZZ    -121.0055
 -----------------------------------------------------------------
Archival summary:
1\1\tp-linux1\SP\HF\6-31G*\41\thomas\MonMar2005:49:592017MonMar2005:49:592017\0\\#,HF,6-31G*,\\0,1\C\F,1,1.16413\F,1,1.22308,2,120.901\F,1,1.2554,2,120.928,3,179.74,0\F,4,3.3324,1,87.8819,2,97.016,0\\HF=-435.313645\\@

 Total job time:  3.17s(wall), 14.14s(cpu) 
 Mon Mar 20 05:49:59 2017

        *************************************************************
        *                                                           *
        *  Thank you very much for using Q-Chem.  Have a nice day.  *
        *                                                           *
        *************************************************************


0 sent ACK to 0 
now end server 0 ... 
cleanup process ... done

Running Job 2 of 2 ddtraj4t48.inp
qchem ddtraj4t48.inp_21141.1 /scratch/qchem/qchem21141/ 1
/mnt/software/qchem/bin/mpi/mpirun_qchem -machinefile /mnt/software/qchem/bin/mpi/machines -np 1 /mnt/software/qchem/exe/qcprog.exe ddtraj4t48.inp_21141.1 /scratch/qchem/qchem21141/

Process 0 of 1 is on tp-linux1 - thread support 0
initial socket setup ...start
initial socket setup ...done 
now start server 0 ... 

cmd = ssh tp-linux1 /mnt/software/qchem/bin/get_hostid 1911265716 > /scratch/qchem/qchem21141/lic.dat
                  Welcome to Q-Chem
     A Quantum Leap Into The Future Of Chemistry


 Q-Chem 4.3, Q-Chem, Inc., Pleasanton, CA (2015)

 Y. Shao,  Z. Gan,  E. Epifanovsky,  A. T. B. Gilbert,  M. Wormit,  
 J. Kussmann,  A. W. Lange,  A. Behn,  J. Deng,  X. Feng,  D. Ghosh,  
 M. Goldey,  P. R. Horn,  L. D. Jacobson,  I. Kaliman,  R. Z. Khaliullin,  
 T. Kus,  A. Landau,  J. Liu,  E. I. Proynov,  Y. M. Rhee,  R. M. Richard,  
 M. A. Rohrdanz,  R. P. Steele,  E. J. Sundstrom,  H. L. Woodcock III,  
 P. M. Zimmerman,  D. Zuev,  B. Albrecht,  E. Alguire,  B. Austin,  
 S. A. Baeppler,  G. J. O. Beran,  Y. A. Bernard,  E. Berquist,  
 K. Brandhorst,  K. B. Bravaya,  S. T. Brown,  D. Casanova,  C.-M. Chang,  
 Y. Chen,  S. H. Chien,  K. D. Closser,  D. L. Crittenden,  M. Diedenhofen,  
 R. A. DiStasio Jr.,  H. Do,  A. D. Dutoi,  R. G. Edgar,  P.-T. Fang,  
 S. Fatehi,  Q. Feng,  L. Fusti-Molnar,  A. Ghysels,  
 A. Golubeva-Zadorozhnaya,  J. Gomes,  A. Gunina,  M. W. D. Hanson-Heine,  
 P. H. P. Harbach,  A. W. Hauser,  E. G. Hohenstein,  Z. C. Holden,  K. Hui,  
 T.-C. Jagau,  H. Ji,  B. Kaduk,  K. Khistyaev,  Jaehoon Kim,  Jihan Kim,  
 R. A. King,  P. Klunzinger,  D. Kosenkov,  T. Kowalczyk,  C. M. Krauter,  
 K. U. Lao,  A. Laurent,  K. V. Lawler,  S. Lehtola,  S. V. Levchenko,  
 C. Y. Lin,  Y.-S. Lin,  F. Liu,  E. Livshits,  R. C. Lochan,  A. Luenser,  
 P. Manohar,  S. F. Manzer,  S.-P. Mao,  N. Mardirossian,  A. V. Marenich,  
 L. A. Martinez-Martinez,  S. A. Maurer,  N. J. Mayhall,  K. Nanda,  
 C. M. Oana,  R. Olivares-Amaya,  D. P. O'Neill,  J. A. Parkhill,  
 T. M. Perrine,  R. Peverati,  P. A. Pieniazek,  F. Plasser,  A. Prociuk,  
 D. R. Rehn,  E. Rosta,  N. J. Russ,  N. Sergueev,  S. M. Sharada,  
 S. Sharma,  D. W. Small,  A. Sodt,  T. Stauch,  T. Stein,  D. Stuck,  
 Y.-C. Su,  A. J. W. Thom,  T. Tsuchimochi,  L. Vogt,  O. Vydrov,  T. Wang,  
 M. A. Watson,  J. Wenzel,  A. White,  C. F. Williams,  V. Vanovschi,  
 S. Yeganeh,  S. R. Yost,  Z.-Q. You,  I. Y. Zhang,  X. Zhang,  Y. Zhao,  
 B. R. Brooks,  G. K. L. Chan,  D. M. Chipman,  C. J. Cramer,  
 W. A. Goddard III,  M. S. Gordon,  W. J. Hehre,  A. Klamt,  
 H. F. Schaefer III,  M. W. Schmidt,  C. D. Sherrill,  D. G. Truhlar,  
 A. Warshel,  X. Xu,  A. Aspuru-Guzik,  R. Baer,  A. T. Bell,  N. A. Besley,  
 J.-D. Chai,  A. Dreuw,  B. D. Dunietz,  T. R. Furlani,  S. R. Gwaltney,  
 C.-P. Hsu,  Y. Jung,  J. Kong,  D. S. Lambrecht,  W. Liang,  C. Ochsenfeld,  
 V. A. Rassolov,  L. V. Slipchenko,  J. E. Subotnik,  T. Van Voorhis,  
 J. M. Herbert,  A. I. Krylov,  P. M. W. Gill,  M. Head-Gordon

 Contributors to earlier versions of Q-Chem not listed above: 
 R. D. Adamson,  J. Baker,  E. F. C. Byrd,  A. K. Chakraborty,  C.-L. Cheng,  
 H. Dachsel,  R. J. Doerksen,  G. Hawkins,  A. Heyden,  S. Hirata,  
 G. Kedziora,  F. J. Keil,  C. Kelley,  P. P. Korambath,  W. Kurlancheek,  
 A. M. Lee,  M. S. Lee,  D. Liotard,  I. Lotan,  P. E. Maslen,  N. Nair,  
 D. Neuhauser,  R. Olson,  B. Peters,  J. Ritchie,  N. E. Schultz,  
 N. Shenvi,  A. C. Simmonett,  K. S. Thanthiriwatte,  Q. Wu,  W. Zhang

 Please cite Q-Chem as follows:
 Y. Shao et al., Mol. Phys. 113, 184-215 (2015)
 DOI: 10.1080/00268976.2014.952696

 Q-Chem 4.3.0 for Intel X86 Linux

 Parts of Q-Chem use Armadillo 5.200.1 (Boston Tea Smuggler).
 http://arma.sourceforge.net/

 Q-Chem begins on Mon Mar 20 05:50:01 2017  

Host: 
0

     Scratch files written to /scratch/qchem/qchem21141//
 Nov1815 1189b_ 19540  19532 5443   
 Parallel job on  1  processors
Processing $rem in /mnt/software/qchem/config/preferences.
 MEM_TOTAL  2000 

Checking the input file for inconsistencies... 	...done.

--------------------------------------------------------------
User input:
--------------------------------------------------------------

$comment
job3 - cvs-adc(2) calculation
$end

$molecule
read
$end

$rem
mem_total 3000
mem_static 1500
sym_ignore true
scf_guess read
method cvs-adc(2)
basis 6-31G*
ee_singlets 20
cc_rest_occ 5                  !only excitations from the lowest N orbitals
unrestricted  true
max_scf_cycles 200
$end
--------------------------------------------------------------
 ----------------------------------------------------------------
             Standard Nuclear Orientation (Angstroms)
    I     Atom           X                Y                Z
 ----------------------------------------------------------------
    1      C      -0.3434230000     2.9571530000    -0.3008970000
    2      F       0.8018660000     2.7663530000    -0.2166090000
    3      F      -1.0158750000     3.3005490000     0.7020540000
    4      F      -1.8667040000     0.1000500000     1.0732350000
    5      F      -0.9238390000     2.8330850000    -1.3703110000
 ----------------------------------------------------------------
 Nuclear Repulsion Energy =   174.8866246543 hartrees
 There are       21 alpha and       21 beta electrons
 Requested basis set is 6-31G(d)
 There are 20 shells and 75 basis functions

 Total QAlloc Memory Limit   3000 MB
 Mega-Array Size      1467 MB
 MEM_STATIC part      1500 MB

                       Distance Matrix (Angstroms)
             C (  1)   F (  2)   F (  3)   F (  4)
   F (  2)  1.164129
   F (  3)  1.255398  2.105585
   F (  4)  3.517337  3.986745  3.332398
   F (  5)  1.223079  2.076906  2.126427  3.785418
 
 tim1(1): 
  0.000000000000000E+000
 tim1(2): 
  0.000000000000000E+000
 A cutoff of  1.0D-11 yielded    183 shell pairs
 There are      2806 function pairs
 
 -------------------------------------------------------
 OpenMP Integral Computing Module                       
 Release: version 1.0, May 2013, Q-Chem Inc. Pittsburgh 
 -------------------------------------------------------
 Integral Job Info:
 Integral job number is                      11
 Integral operator is                         1
 short-range coefficients                     0
 long-range coefficients              100000000
 Omega coefficients                           0
 if combine SR and LR in K                    0
 Integral screening is                        0
 Integral computing path is                   2
 max size of driver memory is            800000
 size of driver memory is                593474
 size of scratch memory is              2260544
 max col of scratch BK array               1296
 max len of scratch array in speh3          155
 max len of scratch index in speh4           18
 max int batch size is                      520
 min int batch size is                       52
 fixed nKL is                                52
 max L of basis functions is                  2
 order of int derivative is                   0
 number of shells is                         20
 number of basis is                          75
 number of cartesian basis is                75
 number of contracted shell pairs           183
 number of primitive shell pairs            936
 maxK2 (contraction) of shell pair           36
 max number of K2 of shell pair               1
 max number of CS2 of shell pair             32
 max number of PS2 of shell pair            192
 mem total for path MDJ                   17476
 -------------------------------------------------------
 Smallest overlap matrix eigenvalue = 3.62E-03

 Scale SEOQF with 1.000000e-01/1.000000e-01/1.000000e+00

 Standard Electronic Orientation quadrupole field applied
 Nucleus-field energy     =    -0.0000000122 hartrees
 Guess MOs from SCF MO coefficient file
 Reading MOs from coefficient file
 Reading MOs from coefficient file
 An unrestricted Hartree-Fock SCF calculation will be
 performed using Pulay DIIS extrapolation
 SCF converges when DIIS error is below 1.0E-08
 using 8 threads for integral computing 
 ---------------------------------------
  Cycle       Energy         DIIS Error
 ---------------------------------------
    1    -435.3136448713      7.55E-07
    2    -435.3136448721      4.31E-07
    3    -435.3136448724      1.86E-07
    4    -435.3136448727      1.04E-07
    5    -435.3136448729      4.28E-08
    6    -435.3136448729      1.75E-08
    7    -435.3136448729      5.27E-09 Convergence criterion met
 ---------------------------------------
 <S^2> = 0.0000
 SCF time:  CPU 6.50 s  wall 1.87 s
 SCF   energy in the final basis set = -435.3136448729
 Total energy in the final basis set = -435.3136448729
================================================================================
|                                                                              |
|                                 A D C  M A N                                 |
|                                                                              |
 ------------------------------------------------------------------------------ 
|                                                                              |
| Components:                                                                  |
|                                                                              |
| - libvmm - 1.2-release                                                       |
|   Authors:                                                                   |
|   Evgeny Epifanovsky, Ilya Kaliman                                           |
|                                                                              |
| - libtensor - 2.4-trunk                                                      |
|   Authors:                                                                   |
|   Evgeny Epifanovsky, Michael Wormit, Dmitry Zuev, Sam Manzer                |
|                                                                              |
| - libwfa - 1.1-beta                                                          |
|   Authors:                                                                   |
|   Felix Plasser, Stefanie Baeppler, Benjamin Thomitzni, Michael Wormit       |
|                                                                              |
| - libadc - 1.0-beta                                                          |
|   Authors:                                                                   |
|   Michael Wormit, Philipp H. P. Harbach, Caroline Krauter, Dirk Rehn,        |
|   Matthias Schneider, Jan Wenzel                                             |
|                                                                              |
| - adcman - 2.4-beta                                                          |
|   Authors:                                                                   |
|   Michael Wormit, Philipp H. P. Harbach, Caroline Krauter, Dirk Rehn,        |
|   Jan Wenzel, Andreas Dreuw                                                  |
|                                                                              |
| Authors of earlier versions of ADCMAN:                                       |
| Andreas Dreuw, Jan Hendrik Starcke, Dirk Rehn, Michael Wormit                |
|                                                                              |
================================================================================

 
 Alpha MOs, Unrestricted
 -- Occupied --                  
-26.626 -26.593 -26.571 -25.882 -11.799  -2.043  -1.935  -1.886
  1 A     2 A     3 A     4 A     5 A     6 A     7 A     8 A                  
 -1.185  -1.144  -1.103  -1.093  -1.049  -0.927  -0.921  -0.912
  9 A    10 A    11 A    12 A    13 A    14 A    15 A    16 A                  
 -0.878  -0.867  -0.256  -0.256  -0.247
 17 A    18 A    19 A    20 A    21 A                                          
 -- Virtual --                   
 -0.032   0.146   0.350   0.367   0.495   0.538   0.576   0.623
 22 A    23 A    24 A    25 A    26 A    27 A    28 A    29 A                  
  1.118   1.154   1.179   1.279   1.284   1.372   1.404   1.411
 30 A    31 A    32 A    33 A    34 A    35 A    36 A    37 A                  
  1.441   1.449   1.460   1.510   1.540   1.772   1.788   1.818
 38 A    39 A    40 A    41 A    42 A    43 A    44 A    45 A                  
  1.819   1.829   1.883   1.906   1.940   2.017   2.060   2.092
 46 A    47 A    48 A    49 A    50 A    51 A    52 A    53 A                  
  2.097   2.103   2.199   2.323   2.359   2.479   2.479   2.482
 54 A    55 A    56 A    57 A    58 A    59 A    60 A    61 A                  
  2.482   2.485   2.818   2.873   3.115   3.203   3.368   3.394
 62 A    63 A    64 A    65 A    66 A    67 A    68 A    69 A                  
  3.408   4.107   4.324   4.796   4.980   5.193
 70 A    71 A    72 A    73 A    74 A    75 A                                  
 
 Beta MOs, Unrestricted
 -- Occupied --                  
-26.626 -26.593 -26.571 -25.882 -11.799  -2.043  -1.935  -1.886
  1 A     2 A     3 A     4 A     5 A     6 A     7 A     8 A                  
 -1.185  -1.144  -1.103  -1.093  -1.049  -0.927  -0.921  -0.912
  9 A    10 A    11 A    12 A    13 A    14 A    15 A    16 A                  
 -0.878  -0.867  -0.256  -0.256  -0.247
 17 A    18 A    19 A    20 A    21 A                                          
 -- Virtual --                   
 -0.032   0.146   0.350   0.367   0.495   0.538   0.576   0.623
 22 A    23 A    24 A    25 A    26 A    27 A    28 A    29 A                  
  1.118   1.154   1.179   1.279   1.284   1.372   1.404   1.411
 30 A    31 A    32 A    33 A    34 A    35 A    36 A    37 A                  
  1.441   1.449   1.460   1.510   1.540   1.772   1.788   1.818
 38 A    39 A    40 A    41 A    42 A    43 A    44 A    45 A                  
  1.819   1.829   1.883   1.906   1.940   2.017   2.060   2.092
 46 A    47 A    48 A    49 A    50 A    51 A    52 A    53 A                  
  2.097   2.103   2.199   2.323   2.359   2.479   2.479   2.482
 54 A    55 A    56 A    57 A    58 A    59 A    60 A    61 A                  
  2.482   2.485   2.818   2.873   3.115   3.203   3.368   3.394
 62 A    63 A    64 A    65 A    66 A    67 A    68 A    69 A                  
  3.408   4.107   4.324   4.796   4.980   5.193
 70 A    71 A    72 A    73 A    74 A    75 A                                  
 

--------------------------------------------------------------------------------
                                   HF Summary                                   
--------------------------------------------------------------------------------
  Energy:                                                 -435.3136448729 a.u.
  Dip. moment [a.u.]:                  [ -57.776647,  181.610474,    2.213481]
  Total dipole [Debye]:                                             484.437264
  <r^2> [a.u.]:                        [ 223.579403, 1029.461960,  136.858984]
  Total <r^2> [a.u.]:                                              1389.900347
--------------------------------------------------------------------------------

--------------------------------------------------------------------------------
                                 MP(2) Summary                                  
--------------------------------------------------------------------------------
  Energy contribution:                                      -0.7968177082 a.u.
  Total energy:                                           -436.1104625811 a.u.
  Dip. moment [a.u.]:                  [ -57.595737,  181.887544,    2.063310]
  Total dipole [Debye]:                                             484.965085
  <r^2> [a.u.]:                        [ 222.681271, 1031.227618,  136.408276]
  Total <r^2> [a.u.]:                                              1390.317165
--------------------------------------------------------------------------------
  Starting Davidson ... 
--------------------------------------------------------------------------------
   It NVec Conv  Avg. Norm  Max. Norm  Conv. states           Remark
--------------------------------------------------------------------------------
        20    0  2.070e-01  1.062e+00 10.9833 n n n n n n n n Guess.
    1   40    0  2.474e-02  1.922e-01 10.8301 n n n n n n n n 
    2   60    0  6.913e-03  6.178e-02 10.8288 n n n n n n n n 
    3   80    0  3.698e-02  5.970e-01 10.8288 n n n n n n n n 
    4  100    0  2.941e-02  4.803e-01 10.8288 n n n n n n n n 
    5   40    0  2.556e-02  3.938e-01 10.8288 n n n n n n n n Subspace collapsed.
    6   60    0  2.800e-02  3.931e-01 10.8288 n n n n n n n n 
    7   80    0  2.738e-02  3.950e-01 10.8288 n n n n n n n n 
    8  100    2  2.682e-02  4.012e-01 10.8288 y y n n n n n n 
    9   40    4  2.613e-02  4.047e-01 10.8288 y y n n y y n n Subspace collapsed.
   10   60    7  2.508e-02  3.951e-01 10.8288 y y y n y y y y 
   11   80   12  2.468e-02  4.030e-01 10.8288 y y y y y y y y 
   12  100   15  2.353e-02  3.883e-01 10.8288 y y y y y y y y 
   13   40   16  2.290e-02  3.865e-01 10.8288 y y y y y y y y Subspace collapsed.
   14   60   16  2.261e-02  3.850e-01 10.8288 y y y y y y y y 
   15   80   16  2.180e-02  3.608e-01 10.8288 y y y y y y y y 
   16   99   16  2.114e-02  3.600e-01 10.8288 y y y y y y y y 
   17  100   16  2.114e-02  3.600e-01 10.8288 y y y y y y y y 
   18   38   16  2.034e-02  3.498e-01 10.8288 y y y y y y y y Subspace collapsed.
   19   56   16  1.927e-02  3.365e-01 10.8288 y y y y y y y y 
   20   72   16  1.858e-02  3.272e-01 10.8288 y y y y y y y y 
   21   72   16  1.858e-02  3.272e-01 10.8288 y y y y y y y y 
   22   92   16  1.704e-02  3.098e-01 10.8288 y y y y y y y y 
   23  100   16  1.686e-02  3.079e-01 10.8288 y y y y y y y y 
   24   33   16  1.636e-02  3.056e-01 10.8288 y y y y y y y y Subspace collapsed.
   25   46   16  1.603e-02  2.998e-01 10.8288 y y y y y y y y 
   26   47   16  1.604e-02  3.000e-01 10.8288 y y y y y y y y 
   27   48   16  1.604e-02  3.000e-01 10.8288 y y y y y y y y 
   28   49   16  1.606e-02  3.004e-01 10.8288 y y y y y y y y 
   29   50   16  1.606e-02  3.005e-01 10.8288 y y y y y y y y 
   30   50   16  1.606e-02  3.005e-01 10.8288 y y y y y y y y 
   31   67   16  3.670e-02  6.540e-01 10.8288 y y y y y y y y 
   32   67   16  3.670e-02  6.540e-01 10.8288 y y y y y y y y 
   33   68   16  3.660e-02  6.594e-01 10.8288 y y y y y y y y 
   34   68   16  3.660e-02  6.594e-01 10.8288 y y y y y y y y 
   35   69   16  3.649e-02  6.577e-01 10.8288 y y y y y y y y 
   36   69   16  3.649e-02  6.577e-01 10.8288 y y y y y y y y 
   37   69   16  3.649e-02  6.577e-01 10.8288 y y y y y y y y 
   38   89   16  2.854e-02  4.883e-01 10.8288 y y y y y y y y 
   39   89   16  2.854e-02  4.883e-01 10.8288 y y y y y y y y 
   40   89   16  2.854e-02  4.883e-01 10.8288 y y y y y y y y 
   41   89   16  2.854e-02  4.883e-01 10.8288 y y y y y y y y 
   42  100   16  2.717e-02  4.584e-01 10.8288 y y y y y y y y 
   43   25   16  2.529e-02  4.151e-01 10.8288 y y y y y y y y Subspace collapsed.
   44   30   16  2.466e-02  4.019e-01 10.8288 y y y y y y y y 
   45   35   16  2.312e-02  3.674e-01 10.8288 y y y y y y y y 
   46   40   16  2.287e-02  3.669e-01 10.8288 y y y y y y y y 
   47   45   16  2.078e-02  3.413e-01 10.8288 y y y y y y y y 
   48   50   16  1.794e-02  3.332e-01 10.8288 y y y y y y y y 
   49   51   16  1.794e-02  3.332e-01 10.8288 y y y y y y y y 
   50   51   16  1.794e-02  3.332e-01 10.8288 y y y y y y y y 
   51   51   16  1.794e-02  3.332e-01 10.8288 y y y y y y y y 
   52   71   16  1.558e-02  2.910e-01 10.8288 y y y y y y y y 
   53   71   16  1.558e-02  2.910e-01 10.8288 y y y y y y y y 
   54   74   16  1.508e-02  2.809e-01 10.8288 y y y y y y y y 
   55   74   16  1.508e-02  2.809e-01 10.8288 y y y y y y y y 
   56   77   16  1.475e-02  2.740e-01 10.8288 y y y y y y y y 
   57   79   16  1.473e-02  2.733e-01 10.8288 y y y y y y y y 
   58   82   16  1.468e-02  2.732e-01 10.8288 y y y y y y y y 
   59   85   16  1.432e-02  2.665e-01 10.8288 y y y y y y y y 
--------------------------------------------------------------------------------
  Davidson Summary: 
 ------------------------------------------------------------
  State  0: excitation energy =  10.8288 a.u.   (converged)
  State  1: excitation energy =  10.8991 a.u.   (converged)
  State  2: excitation energy =  11.1266 a.u.   (converged)
  State  3: excitation energy =  11.1858 a.u.   (converged)
  State  4: excitation energy =  11.2122 a.u.   (converged)
  State  5: excitation energy =  11.2794 a.u.   (converged)
  State  6: excitation energy =  11.2923 a.u.   (converged)
  State  7: excitation energy =  11.3544 a.u.   (converged)
  State  8: excitation energy =  11.5063 a.u.   (converged)
  State  9: excitation energy =  11.5494 a.u.   (converged)
  State 10: excitation energy =  11.5576 a.u.   (converged)
  State 11: excitation energy =  11.5739 a.u.   (converged)
  State 12: excitation energy =  11.5802 a.u.   (converged)
  State 13: excitation energy =  11.5903 a.u.   (converged)
  State 14: excitation energy =  11.5964 a.u.   (converged)
  State 15: excitation energy =  11.6227 a.u.   (converged)
  State 16: excitation energy =  11.9830 a.u.   (not converged)
  State 17: excitation energy =  11.9867 a.u.   (not converged)
  State 18: excitation energy =  12.0129 a.u.   (not converged)
  State 19: excitation energy =  12.1597 a.u.   (not converged)
 ------------------------------------------------------------


--------------------------------------------------------------------------------
                             Excited State Summary
--------------------------------------------------------------------------------

  Excited state  1 (A)                                             [converged]
  ----------------------------------------------------------------------------
  Term symbol:  2 (-) A                                     R^2 =  2.35380e-08

  Total energy:                                           -425.2816990177 a.u.
  Excitation energy:                                             294.665642 eV

  Osc. strength:                                                      0.000000
  Trans. dip. moment [a.u.]:           [  -0.000000,   -0.000000,   -0.000000]
  <i|r^2|0> [a.u.]:                    [   0.000000,   -0.000000,    0.000000]

  V1^2 = 0.9581, V2^2 = 0.0419

  Important amplitudes:
     core i     occ j      vir a      vir b          v   
    ------------------------------------------------------
     5 (A) B              22 (A) B                 0.6551
     5 (A) A              22 (A) A                -0.6551
    ------------------------------------------------------
  ----------------------------------------------------------------------------


  Excited state  2 (A)                                             [converged]
  ----------------------------------------------------------------------------
  Term symbol:  3 (-) A                                     R^2 =  7.57070e-08

  Total energy:                                           -425.2113220642 a.u.
  Excitation energy:                                             296.580697 eV

  Osc. strength:                                                      0.109443
  Trans. dip. moment [a.u.]:           [  -0.021588,   -0.118060,    0.025651]
  <i|r^2|0> [a.u.]:                    [   0.028109,   -1.320364,   -0.029180]

  V1^2 = 0.9535, V2^2 = 0.0465

  Important amplitudes:
     core i     occ j      vir a      vir b          v   
    ------------------------------------------------------
     5 (A) A              22 (A) A                -0.6662
     5 (A) B              22 (A) B                -0.6662
    ------------------------------------------------------
  ----------------------------------------------------------------------------


  Excited state  3 (A)                                             [converged]
  ----------------------------------------------------------------------------
  Term symbol:  4 (-) A                                     R^2 =  4.40459e-08

  Total energy:                                           -424.9839013218 a.u.
  Excitation energy:                                             302.769130 eV

  Osc. strength:                                                      0.000000
  Trans. dip. moment [a.u.]:           [  -0.000000,   -0.000000,   -0.000000]
  <i|r^2|0> [a.u.]:                    [   0.000000,   -0.000000,    0.000000]

  V1^2 = 0.9299, V2^2 = 0.0701

  Important amplitudes:
     core i     occ j      vir a      vir b          v   
    ------------------------------------------------------
     5 (A) A              23 (A) A                -0.6070
     5 (A) B              23 (A) B                 0.6070
    ------------------------------------------------------
  ----------------------------------------------------------------------------


  Excited state  4 (A)                                             [converged]
  ----------------------------------------------------------------------------
  Term symbol:  5 (-) A                                     R^2 =  9.24142e-09

  Total energy:                                           -424.9246638033 a.u.
  Excitation energy:                                             304.381065 eV

  Osc. strength:                                                      0.005739
  Trans. dip. moment [a.u.]:           [   0.024244,    0.000414,   -0.013476]
  <i|r^2|0> [a.u.]:                    [  -0.046150,   -0.023836,    0.001025]

  V1^2 = 0.9176, V2^2 = 0.0824

  Important amplitudes:
     core i     occ j      vir a      vir b          v   
    ------------------------------------------------------
     5 (A) A              23 (A) A                -0.6469
     5 (A) B              23 (A) B                -0.6469
    ------------------------------------------------------
  ----------------------------------------------------------------------------


  Excited state  5 (A)                                             [converged]
  ----------------------------------------------------------------------------
  Term symbol:  6 (-) A                                     R^2 =  9.51707e-09

  Total energy:                                           -424.8983100259 a.u.
  Excitation energy:                                             305.098188 eV

  Osc. strength:                                                      0.000000
  Trans. dip. moment [a.u.]:           [   0.000000,    0.000000,    0.000000]
  <i|r^2|0> [a.u.]:                    [  -0.000000,    0.000000,   -0.000000]

  V1^2 = 0.9527, V2^2 = 0.0473

  Important amplitudes:
     core i     occ j      vir a      vir b          v   
    ------------------------------------------------------
     5 (A) A              24 (A) A                -0.4705
     5 (A) B              24 (A) B                 0.4705
    ------------------------------------------------------
  ----------------------------------------------------------------------------


  Excited state  6 (A)                                             [converged]
  ----------------------------------------------------------------------------
  Term symbol:  7 (-) A                                     R^2 =  2.64946e-08

  Total energy:                                           -424.8311004533 a.u.
  Excitation energy:                                             306.927053 eV

  Osc. strength:                                                      0.000000
  Trans. dip. moment [a.u.]:           [  -0.000000,   -0.000000,   -0.000000]
  <i|r^2|0> [a.u.]:                    [   0.000000,   -0.000000,    0.000000]

  V1^2 = 0.9496, V2^2 = 0.0504

  Important amplitudes:
     core i     occ j      vir a      vir b          v   
    ------------------------------------------------------
     5 (A) B              29 (A) B                 0.4369
     5 (A) A              29 (A) A                -0.4369
    ------------------------------------------------------
  ----------------------------------------------------------------------------


  Excited state  7 (A)                                             [converged]
  ----------------------------------------------------------------------------
  Term symbol:  8 (-) A                                     R^2 =  1.31511e-09

  Total energy:                                           -424.8181553889 a.u.
  Excitation energy:                                             307.279306 eV

  Osc. strength:                                                      0.121676
  Trans. dip. moment [a.u.]:           [   0.015944,   -0.030685,   -0.122339]
  <i|r^2|0> [a.u.]:                    [  -0.020432,   -0.339938,    0.139281]

  V1^2 = 0.9443, V2^2 = 0.0557

  Important amplitudes:
     core i     occ j      vir a      vir b          v   
    ------------------------------------------------------
     5 (A) B              24 (A) B                -0.5207
     5 (A) A              24 (A) A                -0.5207
    ------------------------------------------------------
  ----------------------------------------------------------------------------


  Excited state  8 (A)                                             [converged]
  ----------------------------------------------------------------------------
  Term symbol:  9 (-) A                                     R^2 =  1.58563e-08

  Total energy:                                           -424.7560830821 a.u.
  Excitation energy:                                             308.968379 eV

  Osc. strength:                                                      0.108702
  Trans. dip. moment [a.u.]:           [  -0.116108,    0.018718,   -0.023001]
  <i|r^2|0> [a.u.]:                    [   0.160197,    0.207998,    0.019635]

  V1^2 = 0.9395, V2^2 = 0.0605

  Important amplitudes:
     core i     occ j      vir a      vir b          v   
    ------------------------------------------------------
     5 (A) B              25 (A) B                -0.5027
     5 (A) A              25 (A) A                -0.5027
    ------------------------------------------------------
  ----------------------------------------------------------------------------


  Excited state  9 (A)                                             [converged]
  ----------------------------------------------------------------------------
  Term symbol:  10 (-) A                                    R^2 =  1.80364e-08

  Total energy:                                           -424.6042025843 a.u.
  Excitation energy:                                             313.101258 eV

  Osc. strength:                                                      0.000000
  Trans. dip. moment [a.u.]:           [   0.000000,    0.000000,    0.000000]
  <i|r^2|0> [a.u.]:                    [  -0.000000,    0.000000,   -0.000000]

  V1^2 = 0.9129, V2^2 = 0.0871

  Important amplitudes:
     core i     occ j      vir a      vir b          v   
    ------------------------------------------------------
     5 (A) B              26 (A) B                -0.5238
     5 (A) A              26 (A) A                 0.5238
    ------------------------------------------------------
  ----------------------------------------------------------------------------


  Excited state 10 (A)                                             [converged]
  ----------------------------------------------------------------------------
  Term symbol:  11 (-) A                                    R^2 =  1.20597e-07

  Total energy:                                           -424.5610317349 a.u.
  Excitation energy:                                             314.275997 eV

  Osc. strength:                                                      0.033731
  Trans. dip. moment [a.u.]:           [  -0.014154,   -0.063295,    0.013202]
  <i|r^2|0> [a.u.]:                    [   0.006799,   -0.721612,   -0.028219]

  V1^2 = 0.9101, V2^2 = 0.0899

  Important amplitudes:
     core i     occ j      vir a      vir b          v   
    ------------------------------------------------------
     5 (A) B              26 (A) B                 0.6337
     5 (A) A              26 (A) A                 0.6337
    ------------------------------------------------------
  ----------------------------------------------------------------------------


  Excited state 11 (A)                                             [converged]
  ----------------------------------------------------------------------------
  Term symbol:  12 (-) A                                    R^2 =  7.98979e-08

  Total energy:                                           -424.5528230372 a.u.
  Excitation energy:                                             314.499367 eV

  Osc. strength:                                                      0.000000
  Trans. dip. moment [a.u.]:           [  -0.000000,   -0.000000,   -0.000000]
  <i|r^2|0> [a.u.]:                    [   0.000000,   -0.000000,    0.000000]

  V1^2 = 0.9018, V2^2 = 0.0982

  Important amplitudes:
     core i     occ j      vir a      vir b          v   
    ------------------------------------------------------
     5 (A) B              26 (A) B                 0.3336
     5 (A) A              26 (A) A                -0.3336
    ------------------------------------------------------
  ----------------------------------------------------------------------------


  Excited state 12 (A)                                             [converged]
  ----------------------------------------------------------------------------
  Term symbol:  13 (-) A                                    R^2 =  6.36877e-09

  Total energy:                                           -424.5365547555 a.u.
  Excitation energy:                                             314.942049 eV

  Osc. strength:                                                      0.000000
  Trans. dip. moment [a.u.]:           [  -0.000000,   -0.000000,   -0.000000]
  <i|r^2|0> [a.u.]:                    [   0.000000,   -0.000000,    0.000000]

  V1^2 = 0.8938, V2^2 = 0.1062

  Important amplitudes:
     core i     occ j      vir a      vir b          v   
    ------------------------------------------------------
     5 (A) A              27 (A) A                 0.3655
     5 (A) B              27 (A) B                -0.3655
    ------------------------------------------------------
  ----------------------------------------------------------------------------


  Excited state 13 (A)                                             [converged]
  ----------------------------------------------------------------------------
  Term symbol:  14 (-) A                                    R^2 =  2.63603e-09

  Total energy:                                           -424.5303075081 a.u.
  Excitation energy:                                             315.112045 eV

  Osc. strength:                                                      0.024113
  Trans. dip. moment [a.u.]:           [   0.012295,   -0.018402,   -0.051319]
  <i|r^2|0> [a.u.]:                    [  -0.010792,   -0.198569,    0.064686]

  V1^2 = 0.8961, V2^2 = 0.1039

  Important amplitudes:
     core i     occ j      vir a      vir b          v   
    ------------------------------------------------------
     5 (A) B              27 (A) B                -0.4833
     5 (A) A              27 (A) A                -0.4833
    ------------------------------------------------------
  ----------------------------------------------------------------------------


  Excited state 14 (A)                                             [converged]
  ----------------------------------------------------------------------------
  Term symbol:  15 (-) A                                    R^2 =  1.78019e-08

  Total energy:                                           -424.5201579945 a.u.
  Excitation energy:                                             315.388228 eV

  Osc. strength:                                                      0.000000
  Trans. dip. moment [a.u.]:           [  -0.000000,   -0.000000,   -0.000000]
  <i|r^2|0> [a.u.]:                    [   0.000000,   -0.000000,    0.000000]

  V1^2 = 0.8960, V2^2 = 0.1040

  Important amplitudes:
     core i     occ j      vir a      vir b          v   
    ------------------------------------------------------
     5 (A) A              28 (A) A                 0.4726
     5 (A) B              28 (A) B                -0.4726
    ------------------------------------------------------
  ----------------------------------------------------------------------------


  Excited state 15 (A)                                             [converged]
  ----------------------------------------------------------------------------
  Term symbol:  16 (-) A                                    R^2 =  1.44216e-08

  Total energy:                                           -424.5140198489 a.u.
  Excitation energy:                                             315.555255 eV

  Osc. strength:                                                      0.036426
  Trans. dip. moment [a.u.]:           [   0.065087,   -0.012238,    0.018043]
  <i|r^2|0> [a.u.]:                    [  -0.081269,   -0.128609,   -0.011173]

  V1^2 = 0.9006, V2^2 = 0.0994

  Important amplitudes:
     core i     occ j      vir a      vir b          v   
    ------------------------------------------------------
     5 (A) A              29 (A) A                 0.4680
     5 (A) B              29 (A) B                 0.4680
    ------------------------------------------------------
  ----------------------------------------------------------------------------


  Excited state 16 (A)                                             [converged]
  ----------------------------------------------------------------------------
  Term symbol:  17 (-) A                                    R^2 =  6.15840e-08

  Total energy:                                           -424.4878045549 a.u.
  Excitation energy:                                             316.268609 eV

  Osc. strength:                                                      0.009958
  Trans. dip. moment [a.u.]:           [   0.014709,    0.029686,   -0.013694]
  <i|r^2|0> [a.u.]:                    [  -0.038418,    0.310408,   -0.005335]

  V1^2 = 0.9076, V2^2 = 0.0924

  Important amplitudes:
     core i     occ j      vir a      vir b          v   
    ------------------------------------------------------
     5 (A) A              28 (A) A                -0.5409
     5 (A) B              28 (A) B                -0.5409
    ------------------------------------------------------
  ----------------------------------------------------------------------------


  Excited state 17 (A)                                         [not converged]
  ----------------------------------------------------------------------------
  Term symbol:  18 (-) A                                    R^2 =  3.84477e-03

  Total energy:                                           -424.1275079608 a.u.
  Excitation energy:                                             326.072778 eV


  V1^2 = 0.0014, V2^2 = 0.9986

  Important amplitudes:
     core i     occ j      vir a      vir b          v   
    ------------------------------------------------------
     5 (A) A   21 (A) B   22 (A) A   22 (A) B      0.5515
     5 (A) B   21 (A) A   22 (A) A   22 (A) B     -0.4416
    ------------------------------------------------------
  ----------------------------------------------------------------------------


  Excited state 18 (A)                                         [not converged]
  ----------------------------------------------------------------------------
  Term symbol:  19 (-) A                                    R^2 =  1.04843e-01

  Total energy:                                           -424.1237488838 a.u.
  Excitation energy:                                             326.175068 eV


  V1^2 = 0.0037, V2^2 = 0.9963

  Important amplitudes:
     core i     occ j      vir a      vir b          v   
    ------------------------------------------------------
     5 (A) B   21 (A) A   22 (A) A   22 (A) B     -0.5503
     5 (A) A   21 (A) B   22 (A) A   22 (A) B     -0.4406
    ------------------------------------------------------
  ----------------------------------------------------------------------------


  Excited state 19 (A)                                         [not converged]
  ----------------------------------------------------------------------------
  Term symbol:  20 (-) A                                    R^2 =  2.66534e-01

  Total energy:                                           -424.0975299527 a.u.
  Excitation energy:                                             326.888522 eV


  V1^2 = 0.0037, V2^2 = 0.9963

  Important amplitudes:
     core i     occ j      vir a      vir b          v   
    ------------------------------------------------------
     5 (A) A   19 (A) B   22 (A) A   22 (A) B     -0.3923
     5 (A) B   19 (A) A   22 (A) A   22 (A) B      0.3919
    ------------------------------------------------------
  ----------------------------------------------------------------------------


  Excited state 20 (A)                                         [not converged]
  ----------------------------------------------------------------------------
  Term symbol:  21 (-) A                                    R^2 =  3.75366e-03

  Total energy:                                           -423.9507223159 a.u.
  Excitation energy:                                             330.883360 eV


  V1^2 = 0.0079, V2^2 = 0.9921

  Important amplitudes:
     core i     occ j      vir a      vir b          v   
    ------------------------------------------------------
     5 (A) B   21 (A) A   23 (A) A   22 (A) B      0.4068
     5 (A) A   21 (A) B   22 (A) A   23 (A) B      0.3685
    ------------------------------------------------------
  ----------------------------------------------------------------------------


--------------------------------------------------------------------------------
  Time of ADC calculation:  CPU 3443.02 s  wall 2098.35 s
================================================================================
 
 --------------------------------------------------------------
 
                    Orbital Energies (a.u.)
 --------------------------------------------------------------
 
 Alpha MOs
 -- Occupied --
-26.626 -26.593 -26.571 -25.882 -11.799  -2.043  -1.935  -1.886
 -1.185  -1.144  -1.103  -1.093  -1.049  -0.927  -0.921  -0.912
 -0.878  -0.867  -0.256  -0.256  -0.247
 -- Virtual --
 -0.032   0.146   0.350   0.367   0.495   0.538   0.576   0.623
  1.118   1.154   1.179   1.279   1.284   1.372   1.404   1.411
  1.441   1.449   1.460   1.510   1.540   1.772   1.788   1.818
  1.819   1.829   1.883   1.906   1.940   2.017   2.060   2.092
  2.097   2.103   2.199   2.323   2.359   2.479   2.479   2.482
  2.482   2.485   2.818   2.873   3.115   3.203   3.368   3.394
  3.408   4.107   4.324   4.796   4.980   5.193
 
 Beta MOs
 -- Occupied --
-26.626 -26.593 -26.571 -25.882 -11.799  -2.043  -1.935  -1.886
 -1.185  -1.144  -1.103  -1.093  -1.049  -0.927  -0.921  -0.912
 -0.878  -0.867  -0.256  -0.256  -0.247
 -- Virtual --
 -0.032   0.146   0.350   0.367   0.495   0.538   0.576   0.623
  1.118   1.154   1.179   1.279   1.284   1.372   1.404   1.411
  1.441   1.449   1.460   1.510   1.540   1.772   1.788   1.818
  1.819   1.829   1.883   1.906   1.940   2.017   2.060   2.092
  2.097   2.103   2.199   2.323   2.359   2.479   2.479   2.482
  2.482   2.485   2.818   2.873   3.115   3.203   3.368   3.394
  3.408   4.107   4.324   4.796   4.980   5.193
 --------------------------------------------------------------
 
          Ground-State Mulliken Net Atomic Charges

     Atom                 Charge (a.u.)    Spin (a.u.)
  --------------------------------------------------------
      1 C                     1.202656       0.000000
      2 F                    -0.032415       0.000000
      3 F                    -0.120537       0.000000
      4 F                    -0.945861       0.000000
      5 F                    -0.103843       0.000000
  --------------------------------------------------------
  Sum of atomic charges =     0.000000
  Sum of spin   charges =     0.000000

 -----------------------------------------------------------------
                    Cartesian Multipole Moments
 -----------------------------------------------------------------
    Charge (ESU x 10^10)
                 0.0000
    Dipole Moment (Debye)
         X       7.0731      Y      12.6763      Z      -6.1548
       Tot      15.7670
    Quadrupole Moments (Debye-Ang)
        XX     -37.3857     XY      -2.8144     YY      16.4953
        XZ       9.3300     YZ      -4.6032     ZZ     -27.1704
    Octopole Moments (Debye-Ang^2)
       XXX      80.1026    XXY     -50.5210    XYY       5.9895
       YYY     -34.5320    XXZ     -17.7383    XYZ       2.1129
       YYZ     -13.4471    XZZ      25.5977    YZZ     -49.7285
       ZZZ      -8.9987
    Hexadecapole Moments (Debye-Ang^3)
      XXXX    -252.4846   XXXY      68.8997   XXYY    -179.5088
      XYYY      32.7299   YYYY    -550.5045   XXXZ      58.4813
      XXYZ      10.1820   XYYZ      11.8317   YYYZ      -1.9843
      XXZZ     -69.0549   XYZZ      20.2827   YYZZ    -166.1551
      XZZZ      38.6999   YZZZ      35.5889   ZZZZ    -121.0058
 -----------------------------------------------------------------
Archival summary:
1\1\tp-linux1\SP\HF\6-31G*\41\thomas\MonMar2006:25:042017MonMar2006:25:042017\0\\#,HF,6-31G*,\\0,1\C\F,1,1.16413\F,1,1.22308,2,120.901\F,1,1.2554,2,120.928,3,179.74,0\F,4,3.3324,1,87.8819,2,97.016,0\\HF=-435.313645\\@

 Total job time:  2102.42s(wall), 3453.15s(cpu) 
 Mon Mar 20 06:25:04 2017

        *************************************************************
        *                                                           *
        *  Thank you very much for using Q-Chem.  Have a nice day.  *
        *                                                           *
        *************************************************************


0 sent ACK to 0 
now end server 0 ... 
cleanup process ... done
