
Running Job 1 of 2 ddtraj3t24.inp
qchem ddtraj3t24.inp_6702.0 /scratch/qchem/qchem6702/ 1
/mnt/software/qchem/bin/mpi/mpirun_qchem -machinefile /mnt/software/qchem/bin/mpi/machines -np 1 /mnt/software/qchem/exe/qcprog.exe ddtraj3t24.inp_6702.0 /scratch/qchem/qchem6702/

Process 0 of 1 is on tp-linux1 - thread support 0
initial socket setup ...start
initial socket setup ...done 
now start server 0 ... 

cmd = ssh tp-linux1 /mnt/software/qchem/bin/get_hostid 876161078 > /scratch/qchem/qchem6702/lic.dat
                  Welcome to Q-Chem
     A Quantum Leap Into The Future Of Chemistry


 Q-Chem 4.3, Q-Chem, Inc., Pleasanton, CA (2015)

 Y. Shao,  Z. Gan,  E. Epifanovsky,  A. T. B. Gilbert,  M. Wormit,  
 J. Kussmann,  A. W. Lange,  A. Behn,  J. Deng,  X. Feng,  D. Ghosh,  
 M. Goldey,  P. R. Horn,  L. D. Jacobson,  I. Kaliman,  R. Z. Khaliullin,  
 T. Kus,  A. Landau,  J. Liu,  E. I. Proynov,  Y. M. Rhee,  R. M. Richard,  
 M. A. Rohrdanz,  R. P. Steele,  E. J. Sundstrom,  H. L. Woodcock III,  
 P. M. Zimmerman,  D. Zuev,  B. Albrecht,  E. Alguire,  B. Austin,  
 S. A. Baeppler,  G. J. O. Beran,  Y. A. Bernard,  E. Berquist,  
 K. Brandhorst,  K. B. Bravaya,  S. T. Brown,  D. Casanova,  C.-M. Chang,  
 Y. Chen,  S. H. Chien,  K. D. Closser,  D. L. Crittenden,  M. Diedenhofen,  
 R. A. DiStasio Jr.,  H. Do,  A. D. Dutoi,  R. G. Edgar,  P.-T. Fang,  
 S. Fatehi,  Q. Feng,  L. Fusti-Molnar,  A. Ghysels,  
 A. Golubeva-Zadorozhnaya,  J. Gomes,  A. Gunina,  M. W. D. Hanson-Heine,  
 P. H. P. Harbach,  A. W. Hauser,  E. G. Hohenstein,  Z. C. Holden,  K. Hui,  
 T.-C. Jagau,  H. Ji,  B. Kaduk,  K. Khistyaev,  Jaehoon Kim,  Jihan Kim,  
 R. A. King,  P. Klunzinger,  D. Kosenkov,  T. Kowalczyk,  C. M. Krauter,  
 K. U. Lao,  A. Laurent,  K. V. Lawler,  S. Lehtola,  S. V. Levchenko,  
 C. Y. Lin,  Y.-S. Lin,  F. Liu,  E. Livshits,  R. C. Lochan,  A. Luenser,  
 P. Manohar,  S. F. Manzer,  S.-P. Mao,  N. Mardirossian,  A. V. Marenich,  
 L. A. Martinez-Martinez,  S. A. Maurer,  N. J. Mayhall,  K. Nanda,  
 C. M. Oana,  R. Olivares-Amaya,  D. P. O'Neill,  J. A. Parkhill,  
 T. M. Perrine,  R. Peverati,  P. A. Pieniazek,  F. Plasser,  A. Prociuk,  
 D. R. Rehn,  E. Rosta,  N. J. Russ,  N. Sergueev,  S. M. Sharada,  
 S. Sharma,  D. W. Small,  A. Sodt,  T. Stauch,  T. Stein,  D. Stuck,  
 Y.-C. Su,  A. J. W. Thom,  T. Tsuchimochi,  L. Vogt,  O. Vydrov,  T. Wang,  
 M. A. Watson,  J. Wenzel,  A. White,  C. F. Williams,  V. Vanovschi,  
 S. Yeganeh,  S. R. Yost,  Z.-Q. You,  I. Y. Zhang,  X. Zhang,  Y. Zhao,  
 B. R. Brooks,  G. K. L. Chan,  D. M. Chipman,  C. J. Cramer,  
 W. A. Goddard III,  M. S. Gordon,  W. J. Hehre,  A. Klamt,  
 H. F. Schaefer III,  M. W. Schmidt,  C. D. Sherrill,  D. G. Truhlar,  
 A. Warshel,  X. Xu,  A. Aspuru-Guzik,  R. Baer,  A. T. Bell,  N. A. Besley,  
 J.-D. Chai,  A. Dreuw,  B. D. Dunietz,  T. R. Furlani,  S. R. Gwaltney,  
 C.-P. Hsu,  Y. Jung,  J. Kong,  D. S. Lambrecht,  W. Liang,  C. Ochsenfeld,  
 V. A. Rassolov,  L. V. Slipchenko,  J. E. Subotnik,  T. Van Voorhis,  
 J. M. Herbert,  A. I. Krylov,  P. M. W. Gill,  M. Head-Gordon

 Contributors to earlier versions of Q-Chem not listed above: 
 R. D. Adamson,  J. Baker,  E. F. C. Byrd,  A. K. Chakraborty,  C.-L. Cheng,  
 H. Dachsel,  R. J. Doerksen,  G. Hawkins,  A. Heyden,  S. Hirata,  
 G. Kedziora,  F. J. Keil,  C. Kelley,  P. P. Korambath,  W. Kurlancheek,  
 A. M. Lee,  M. S. Lee,  D. Liotard,  I. Lotan,  P. E. Maslen,  N. Nair,  
 D. Neuhauser,  R. Olson,  B. Peters,  J. Ritchie,  N. E. Schultz,  
 N. Shenvi,  A. C. Simmonett,  K. S. Thanthiriwatte,  Q. Wu,  W. Zhang

 Please cite Q-Chem as follows:
 Y. Shao et al., Mol. Phys. 113, 184-215 (2015)
 DOI: 10.1080/00268976.2014.952696

 Q-Chem 4.3.0 for Intel X86 Linux

 Parts of Q-Chem use Armadillo 5.200.1 (Boston Tea Smuggler).
 http://arma.sourceforge.net/

 Q-Chem begins on Sat Mar 18 09:59:48 2017  

Host: 
0

     Scratch files written to /scratch/qchem/qchem6702//
 Nov1815 1189b_ 19540  19532 5443   
 Parallel job on  1  processors
Processing $rem in /mnt/software/qchem/config/preferences.
 MEM_TOTAL  2000 

Checking the input file for inconsistencies... 	...done.

--------------------------------------------------------------
User input:
--------------------------------------------------------------
$comment
XAS calculation for the 2b valence excited for water using cvs-adc(2)-x + 6-311+G* basis set
job 1 - determination of HF orbitals
$end

$molecule
0 1
6  -0.384959  2.99056  -0.257996
9  0.71728  2.518554  -0.095278
9  -1.13352  3.101905  0.793191
9  -1.518965  0.832455  0.734478
9  -1.071632  2.582713  -1.266616
$end

$rem
jobtype      sp
sym_ignore true
exchange     hf
basis        6-31G*
unrestricted true
$end

--------------------------------------------------------------
 ----------------------------------------------------------------
             Standard Nuclear Orientation (Angstroms)
    I     Atom           X                Y                Z
 ----------------------------------------------------------------
    1      C      -0.3849590000     2.9905600000    -0.2579960000
    2      F       0.7172800000     2.5185540000    -0.0952780000
    3      F      -1.1335200000     3.1019050000     0.7931910000
    4      F      -1.5189650000     0.8324550000     0.7344780000
    5      F      -1.0716320000     2.5827130000    -1.2666160000
 ----------------------------------------------------------------
 Nuclear Repulsion Energy =   188.2220885655 hartrees
 There are       21 alpha and       21 beta electrons
 Requested basis set is 6-31G(d)
 There are 20 shells and 75 basis functions

 Total QAlloc Memory Limit   2000 MB
 Mega-Array Size        61 MB
 MEM_STATIC part        62 MB

                       Distance Matrix (Angstroms)
             C (  1)   F (  2)   F (  3)   F (  4)
   F (  2)  1.210040
   F (  3)  1.295274  2.134277
   F (  4)  2.632184  2.920996  2.302698
   F (  5)  1.286535  2.139242  2.125134  2.695902
 
 tim1(1): 
  0.000000000000000E+000
 tim1(2): 
  0.000000000000000E+000
 A cutoff of  1.0D-08 yielded    191 shell pairs
 There are      2910 function pairs
 
 -------------------------------------------------------
 OpenMP Integral Computing Module                       
 Release: version 1.0, May 2013, Q-Chem Inc. Pittsburgh 
 -------------------------------------------------------
 Integral Job Info:
 Integral job number is                      11
 Integral operator is                         1
 short-range coefficients                     0
 long-range coefficients              100000000
 Omega coefficients                           0
 if combine SR and LR in K                    0
 Integral screening is                        0
 Integral computing path is                   2
 max size of driver memory is            800000
 size of driver memory is                593474
 size of scratch memory is              2260544
 max col of scratch BK array               1296
 max len of scratch array in speh3          155
 max len of scratch index in speh4           18
 max int batch size is                      520
 min int batch size is                       52
 fixed nKL is                                52
 max L of basis functions is                  2
 order of int derivative is                   0
 number of shells is                         20
 number of basis is                          75
 number of cartesian basis is                75
 number of contracted shell pairs           191
 number of primitive shell pairs            914
 maxK2 (contraction) of shell pair           36
 max number of K2 of shell pair               1
 max number of CS2 of shell pair             30
 max number of PS2 of shell pair            180
 mem total for path MDJ                   20584
 -------------------------------------------------------
 Smallest overlap matrix eigenvalue = 2.54E-03

 Scale SEOQF with 1.000000e-01/1.000000e-01/1.000000e+00

 Standard Electronic Orientation quadrupole field applied
 Nucleus-field energy     =    -0.0000000067 hartrees
 Guess from superposition of atomic densities
 Warning:  Energy on first SCF cycle will be non-variational
 An unrestricted Hartree-Fock SCF calculation will be
 performed using Pulay DIIS extrapolation
 SCF converges when DIIS error is below 1.0E-05
 using 8 threads for integral computing 
 ---------------------------------------
  Cycle       Energy         DIIS Error
 ---------------------------------------
    1    -436.0781007021      8.38E-02
    2    -435.0354365910      2.22E-02
    3    -433.9584636800      4.07E-02
    4    -435.2506503873      1.17E-02
    5    -435.2928274602      6.99E-03
    6    -435.3195987296      2.34E-03
    7    -435.3234808350      5.84E-04
    8    -435.3240883677      1.95E-04
    9    -435.3242372974      1.90E-04
   10    -435.3243377951      1.27E-04
   11    -435.3244069855      4.40E-05
   12    -435.3244243904      3.09E-05
   13    -435.3244285898      2.42E-05
   14    -435.3244308159      7.55E-06 Convergence criterion met
 ---------------------------------------
 <S^2> = 0.0000
 SCF time:  CPU 15.72 s  wall 3.28 s
 SCF   energy in the final basis set = -435.3244308159
 Total energy in the final basis set = -435.3244308159
 
 --------------------------------------------------------------
 
                    Orbital Energies (a.u.)
 --------------------------------------------------------------
 
 Alpha MOs
 -- Occupied --
-26.557 -26.514 -26.505 -25.982 -11.734  -1.937  -1.830  -1.785
 -1.236  -1.110  -1.007  -0.998  -0.952  -0.845  -0.839  -0.825
 -0.793  -0.786  -0.346  -0.346  -0.321
 -- Virtual --
 -0.094   0.309   0.330   0.350   0.543   0.566   0.624   0.698
  1.180   1.218   1.239   1.263   1.283   1.385   1.478   1.487
  1.498   1.519   1.535   1.544   1.632   1.742   1.789   1.807
  1.861   1.939   1.958   1.972   1.995   2.041   2.049   2.124
  2.154   2.187   2.274   2.277   2.400   2.403   2.408   2.509
  2.642   2.695   2.776   2.808   3.037   3.071   3.307   3.351
  3.458   4.180   4.479   4.641   4.713   5.610
 
 Beta MOs
 -- Occupied --
-26.557 -26.514 -26.505 -25.982 -11.734  -1.937  -1.830  -1.785
 -1.236  -1.110  -1.007  -0.998  -0.952  -0.845  -0.839  -0.825
 -0.793  -0.786  -0.346  -0.346  -0.321
 -- Virtual --
 -0.094   0.309   0.330   0.350   0.543   0.566   0.624   0.698
  1.180   1.218   1.239   1.263   1.283   1.385   1.478   1.487
  1.498   1.519   1.535   1.544   1.632   1.742   1.789   1.807
  1.861   1.939   1.958   1.972   1.995   2.041   2.049   2.124
  2.154   2.187   2.274   2.277   2.400   2.403   2.408   2.509
  2.642   2.695   2.776   2.808   3.037   3.071   3.307   3.351
  3.458   4.180   4.479   4.641   4.713   5.610
 --------------------------------------------------------------
 
          Ground-State Mulliken Net Atomic Charges

     Atom                 Charge (a.u.)    Spin (a.u.)
  --------------------------------------------------------
      1 C                     1.182883       0.000000
      2 F                    -0.084635       0.000000
      3 F                    -0.113594       0.000000
      4 F                    -0.829271       0.000000
      5 F                    -0.155383       0.000000
  --------------------------------------------------------
  Sum of atomic charges =     0.000000
  Sum of spin   charges =     0.000000

 -----------------------------------------------------------------
                    Cartesian Multipole Moments
 -----------------------------------------------------------------
    Charge (ESU x 10^10)
                 0.0000
    Dipole Moment (Debye)
         X       4.6777      Y       8.4931      Z      -3.7794
       Tot      10.4066
    Quadrupole Moments (Debye-Ang)
        XX     -31.2538     XY       1.3984     YY      10.4557
        XZ       4.4515     YZ      -5.4596     ZZ     -24.8120
    Octopole Moments (Debye-Ang^2)
       XXX      63.2764    XXY     -59.7081    XYY      10.2815
       YYY     -50.0907    XXZ      -6.6627    XYZ       4.0114
       YYZ     -12.7254    XZZ      19.2216    YZZ     -54.6777
       ZZZ      -2.4157
    Hexadecapole Moments (Debye-Ang^3)
      XXXX    -190.4794   XXXY     106.6224   XXYY    -176.0450
      XYYY      68.7198   YYYY    -509.5284   XXXZ      21.3889
      XXYZ       0.0220   XYYZ       8.0368   YYYZ     -23.7523
      XXZZ     -47.1945   XYZZ      33.5259   YYZZ    -159.3133
      XZZZ      13.8661   YZZZ      14.0432   ZZZZ     -92.7513
 -----------------------------------------------------------------
Archival summary:
1\1\tp-linux1\SP\HF\6-31G*\41\thomas\SatMar1809:59:522017SatMar1809:59:522017\0\\#,HF,6-31G*,\\0,1\F\C,1,1.29527\F,2,1.21004,1,116.797\F,2,1.28654,1,110.796,3,-138.817,0\F,1,2.3027,2,89.5028,3,75.4242,0\\HF=-435.324431\\@

 Total job time:  3.60s(wall), 17.43s(cpu) 
 Sat Mar 18 09:59:52 2017

        *************************************************************
        *                                                           *
        *  Thank you very much for using Q-Chem.  Have a nice day.  *
        *                                                           *
        *************************************************************


0 sent ACK to 0 
now end server 0 ... 
cleanup process ... done

Running Job 2 of 2 ddtraj3t24.inp
qchem ddtraj3t24.inp_6702.1 /scratch/qchem/qchem6702/ 1
/mnt/software/qchem/bin/mpi/mpirun_qchem -machinefile /mnt/software/qchem/bin/mpi/machines -np 1 /mnt/software/qchem/exe/qcprog.exe ddtraj3t24.inp_6702.1 /scratch/qchem/qchem6702/

Process 0 of 1 is on tp-linux1 - thread support 0
initial socket setup ...start
initial socket setup ...done 
now start server 0 ... 

cmd = ssh tp-linux1 /mnt/software/qchem/bin/get_hostid 1201044984 > /scratch/qchem/qchem6702/lic.dat
                  Welcome to Q-Chem
     A Quantum Leap Into The Future Of Chemistry


 Q-Chem 4.3, Q-Chem, Inc., Pleasanton, CA (2015)

 Y. Shao,  Z. Gan,  E. Epifanovsky,  A. T. B. Gilbert,  M. Wormit,  
 J. Kussmann,  A. W. Lange,  A. Behn,  J. Deng,  X. Feng,  D. Ghosh,  
 M. Goldey,  P. R. Horn,  L. D. Jacobson,  I. Kaliman,  R. Z. Khaliullin,  
 T. Kus,  A. Landau,  J. Liu,  E. I. Proynov,  Y. M. Rhee,  R. M. Richard,  
 M. A. Rohrdanz,  R. P. Steele,  E. J. Sundstrom,  H. L. Woodcock III,  
 P. M. Zimmerman,  D. Zuev,  B. Albrecht,  E. Alguire,  B. Austin,  
 S. A. Baeppler,  G. J. O. Beran,  Y. A. Bernard,  E. Berquist,  
 K. Brandhorst,  K. B. Bravaya,  S. T. Brown,  D. Casanova,  C.-M. Chang,  
 Y. Chen,  S. H. Chien,  K. D. Closser,  D. L. Crittenden,  M. Diedenhofen,  
 R. A. DiStasio Jr.,  H. Do,  A. D. Dutoi,  R. G. Edgar,  P.-T. Fang,  
 S. Fatehi,  Q. Feng,  L. Fusti-Molnar,  A. Ghysels,  
 A. Golubeva-Zadorozhnaya,  J. Gomes,  A. Gunina,  M. W. D. Hanson-Heine,  
 P. H. P. Harbach,  A. W. Hauser,  E. G. Hohenstein,  Z. C. Holden,  K. Hui,  
 T.-C. Jagau,  H. Ji,  B. Kaduk,  K. Khistyaev,  Jaehoon Kim,  Jihan Kim,  
 R. A. King,  P. Klunzinger,  D. Kosenkov,  T. Kowalczyk,  C. M. Krauter,  
 K. U. Lao,  A. Laurent,  K. V. Lawler,  S. Lehtola,  S. V. Levchenko,  
 C. Y. Lin,  Y.-S. Lin,  F. Liu,  E. Livshits,  R. C. Lochan,  A. Luenser,  
 P. Manohar,  S. F. Manzer,  S.-P. Mao,  N. Mardirossian,  A. V. Marenich,  
 L. A. Martinez-Martinez,  S. A. Maurer,  N. J. Mayhall,  K. Nanda,  
 C. M. Oana,  R. Olivares-Amaya,  D. P. O'Neill,  J. A. Parkhill,  
 T. M. Perrine,  R. Peverati,  P. A. Pieniazek,  F. Plasser,  A. Prociuk,  
 D. R. Rehn,  E. Rosta,  N. J. Russ,  N. Sergueev,  S. M. Sharada,  
 S. Sharma,  D. W. Small,  A. Sodt,  T. Stauch,  T. Stein,  D. Stuck,  
 Y.-C. Su,  A. J. W. Thom,  T. Tsuchimochi,  L. Vogt,  O. Vydrov,  T. Wang,  
 M. A. Watson,  J. Wenzel,  A. White,  C. F. Williams,  V. Vanovschi,  
 S. Yeganeh,  S. R. Yost,  Z.-Q. You,  I. Y. Zhang,  X. Zhang,  Y. Zhao,  
 B. R. Brooks,  G. K. L. Chan,  D. M. Chipman,  C. J. Cramer,  
 W. A. Goddard III,  M. S. Gordon,  W. J. Hehre,  A. Klamt,  
 H. F. Schaefer III,  M. W. Schmidt,  C. D. Sherrill,  D. G. Truhlar,  
 A. Warshel,  X. Xu,  A. Aspuru-Guzik,  R. Baer,  A. T. Bell,  N. A. Besley,  
 J.-D. Chai,  A. Dreuw,  B. D. Dunietz,  T. R. Furlani,  S. R. Gwaltney,  
 C.-P. Hsu,  Y. Jung,  J. Kong,  D. S. Lambrecht,  W. Liang,  C. Ochsenfeld,  
 V. A. Rassolov,  L. V. Slipchenko,  J. E. Subotnik,  T. Van Voorhis,  
 J. M. Herbert,  A. I. Krylov,  P. M. W. Gill,  M. Head-Gordon

 Contributors to earlier versions of Q-Chem not listed above: 
 R. D. Adamson,  J. Baker,  E. F. C. Byrd,  A. K. Chakraborty,  C.-L. Cheng,  
 H. Dachsel,  R. J. Doerksen,  G. Hawkins,  A. Heyden,  S. Hirata,  
 G. Kedziora,  F. J. Keil,  C. Kelley,  P. P. Korambath,  W. Kurlancheek,  
 A. M. Lee,  M. S. Lee,  D. Liotard,  I. Lotan,  P. E. Maslen,  N. Nair,  
 D. Neuhauser,  R. Olson,  B. Peters,  J. Ritchie,  N. E. Schultz,  
 N. Shenvi,  A. C. Simmonett,  K. S. Thanthiriwatte,  Q. Wu,  W. Zhang

 Please cite Q-Chem as follows:
 Y. Shao et al., Mol. Phys. 113, 184-215 (2015)
 DOI: 10.1080/00268976.2014.952696

 Q-Chem 4.3.0 for Intel X86 Linux

 Parts of Q-Chem use Armadillo 5.200.1 (Boston Tea Smuggler).
 http://arma.sourceforge.net/

 Q-Chem begins on Sat Mar 18 09:59:54 2017  

Host: 
0

     Scratch files written to /scratch/qchem/qchem6702//
 Nov1815 1189b_ 19540  19532 5443   
 Parallel job on  1  processors
Processing $rem in /mnt/software/qchem/config/preferences.
 MEM_TOTAL  2000 

Checking the input file for inconsistencies... 	...done.

--------------------------------------------------------------
User input:
--------------------------------------------------------------

$comment
job3 - cvs-adc(2) calculation
$end

$molecule
read
$end

$rem
mem_total 3000
mem_static 1500
sym_ignore true
scf_guess read
method cvs-adc(2)
basis 6-31G*
ee_singlets 20
cc_rest_occ 5                  !only excitations from the lowest N orbitals
unrestricted  true
max_scf_cycles 200
$end
--------------------------------------------------------------
 ----------------------------------------------------------------
             Standard Nuclear Orientation (Angstroms)
    I     Atom           X                Y                Z
 ----------------------------------------------------------------
    1      C      -0.3849590000     2.9905600000    -0.2579960000
    2      F       0.7172800000     2.5185540000    -0.0952780000
    3      F      -1.1335200000     3.1019050000     0.7931910000
    4      F      -1.5189650000     0.8324550000     0.7344780000
    5      F      -1.0716320000     2.5827130000    -1.2666160000
 ----------------------------------------------------------------
 Nuclear Repulsion Energy =   188.2220885655 hartrees
 There are       21 alpha and       21 beta electrons
 Requested basis set is 6-31G(d)
 There are 20 shells and 75 basis functions

 Total QAlloc Memory Limit   3000 MB
 Mega-Array Size      1467 MB
 MEM_STATIC part      1500 MB

                       Distance Matrix (Angstroms)
             C (  1)   F (  2)   F (  3)   F (  4)
   F (  2)  1.210040
   F (  3)  1.295274  2.134277
   F (  4)  2.632184  2.920996  2.302698
   F (  5)  1.286535  2.139242  2.125134  2.695902
 
 tim1(1): 
  0.000000000000000E+000
 tim1(2): 
  0.000000000000000E+000
 A cutoff of  1.0D-11 yielded    199 shell pairs
 There are      2962 function pairs
 
 -------------------------------------------------------
 OpenMP Integral Computing Module                       
 Release: version 1.0, May 2013, Q-Chem Inc. Pittsburgh 
 -------------------------------------------------------
 Integral Job Info:
 Integral job number is                      11
 Integral operator is                         1
 short-range coefficients                     0
 long-range coefficients              100000000
 Omega coefficients                           0
 if combine SR and LR in K                    0
 Integral screening is                        0
 Integral computing path is                   2
 max size of driver memory is            800000
 size of driver memory is                593474
 size of scratch memory is              2260544
 max col of scratch BK array               1296
 max len of scratch array in speh3          155
 max len of scratch index in speh4           18
 max int batch size is                      520
 min int batch size is                       52
 fixed nKL is                                52
 max L of basis functions is                  2
 order of int derivative is                   0
 number of shells is                         20
 number of basis is                          75
 number of cartesian basis is                75
 number of contracted shell pairs           199
 number of primitive shell pairs           1018
 maxK2 (contraction) of shell pair           36
 max number of K2 of shell pair               1
 max number of CS2 of shell pair             34
 max number of PS2 of shell pair            204
 mem total for path MDJ                   21832
 -------------------------------------------------------
 Smallest overlap matrix eigenvalue = 2.54E-03

 Scale SEOQF with 1.000000e-01/1.000000e-01/1.000000e+00

 Standard Electronic Orientation quadrupole field applied
 Nucleus-field energy     =    -0.0000000067 hartrees
 Guess MOs from SCF MO coefficient file
 Reading MOs from coefficient file
 Reading MOs from coefficient file
 An unrestricted Hartree-Fock SCF calculation will be
 performed using Pulay DIIS extrapolation
 SCF converges when DIIS error is below 1.0E-08
 using 8 threads for integral computing 
 ---------------------------------------
  Cycle       Energy         DIIS Error
 ---------------------------------------
    1    -435.3244313886      3.31E-06
    2    -435.3244314208      2.84E-06
    3    -435.3244314342      1.38E-06
    4    -435.3244314583      1.03E-06
    5    -435.3244314798      5.84E-07
    6    -435.3244314853      2.46E-07
    7    -435.3244314858      1.38E-07
    8    -435.3244314859      7.39E-08
    9    -435.3244314859      3.20E-08
   10    -435.3244314859      1.44E-08
   11    -435.3244314859      3.57E-09 Convergence criterion met
 ---------------------------------------
 <S^2> = 0.0000
 SCF time:  CPU 13.55 s  wall 2.94 s
 SCF   energy in the final basis set = -435.3244314859
 Total energy in the final basis set = -435.3244314859
================================================================================
|                                                                              |
|                                 A D C  M A N                                 |
|                                                                              |
 ------------------------------------------------------------------------------ 
|                                                                              |
| Components:                                                                  |
|                                                                              |
| - libvmm - 1.2-release                                                       |
|   Authors:                                                                   |
|   Evgeny Epifanovsky, Ilya Kaliman                                           |
|                                                                              |
| - libtensor - 2.4-trunk                                                      |
|   Authors:                                                                   |
|   Evgeny Epifanovsky, Michael Wormit, Dmitry Zuev, Sam Manzer                |
|                                                                              |
| - libwfa - 1.1-beta                                                          |
|   Authors:                                                                   |
|   Felix Plasser, Stefanie Baeppler, Benjamin Thomitzni, Michael Wormit       |
|                                                                              |
| - libadc - 1.0-beta                                                          |
|   Authors:                                                                   |
|   Michael Wormit, Philipp H. P. Harbach, Caroline Krauter, Dirk Rehn,        |
|   Matthias Schneider, Jan Wenzel                                             |
|                                                                              |
| - adcman - 2.4-beta                                                          |
|   Authors:                                                                   |
|   Michael Wormit, Philipp H. P. Harbach, Caroline Krauter, Dirk Rehn,        |
|   Jan Wenzel, Andreas Dreuw                                                  |
|                                                                              |
| Authors of earlier versions of ADCMAN:                                       |
| Andreas Dreuw, Jan Hendrik Starcke, Dirk Rehn, Michael Wormit                |
|                                                                              |
================================================================================

 
 Alpha MOs, Unrestricted
 -- Occupied --                  
-26.557 -26.514 -26.505 -25.982 -11.734  -1.937  -1.830  -1.785
  1 A     2 A     3 A     4 A     5 A     6 A     7 A     8 A                  
 -1.236  -1.110  -1.007  -0.998  -0.952  -0.845  -0.839  -0.825
  9 A    10 A    11 A    12 A    13 A    14 A    15 A    16 A                  
 -0.793  -0.786  -0.346  -0.346  -0.321
 17 A    18 A    19 A    20 A    21 A                                          
 -- Virtual --                   
 -0.094   0.309   0.330   0.350   0.543   0.566   0.624   0.698
 22 A    23 A    24 A    25 A    26 A    27 A    28 A    29 A                  
  1.180   1.218   1.239   1.263   1.283   1.385   1.478   1.487
 30 A    31 A    32 A    33 A    34 A    35 A    36 A    37 A                  
  1.498   1.519   1.535   1.544   1.632   1.742   1.789   1.807
 38 A    39 A    40 A    41 A    42 A    43 A    44 A    45 A                  
  1.861   1.939   1.958   1.972   1.995   2.041   2.049   2.124
 46 A    47 A    48 A    49 A    50 A    51 A    52 A    53 A                  
  2.154   2.187   2.274   2.277   2.400   2.403   2.408   2.509
 54 A    55 A    56 A    57 A    58 A    59 A    60 A    61 A                  
  2.642   2.695   2.776   2.808   3.037   3.071   3.307   3.351
 62 A    63 A    64 A    65 A    66 A    67 A    68 A    69 A                  
  3.458   4.180   4.479   4.641   4.713   5.610
 70 A    71 A    72 A    73 A    74 A    75 A                                  
 
 Beta MOs, Unrestricted
 -- Occupied --                  
-26.557 -26.514 -26.505 -25.982 -11.734  -1.937  -1.830  -1.785
  1 A     2 A     3 A     4 A     5 A     6 A     7 A     8 A                  
 -1.236  -1.110  -1.007  -0.998  -0.952  -0.845  -0.839  -0.825
  9 A    10 A    11 A    12 A    13 A    14 A    15 A    16 A                  
 -0.793  -0.786  -0.346  -0.346  -0.321
 17 A    18 A    19 A    20 A    21 A                                          
 -- Virtual --                   
 -0.094   0.309   0.330   0.350   0.543   0.566   0.624   0.698
 22 A    23 A    24 A    25 A    26 A    27 A    28 A    29 A                  
  1.180   1.218   1.239   1.263   1.283   1.385   1.478   1.487
 30 A    31 A    32 A    33 A    34 A    35 A    36 A    37 A                  
  1.498   1.519   1.535   1.544   1.632   1.742   1.789   1.807
 38 A    39 A    40 A    41 A    42 A    43 A    44 A    45 A                  
  1.861   1.939   1.958   1.972   1.995   2.041   2.049   2.124
 46 A    47 A    48 A    49 A    50 A    51 A    52 A    53 A                  
  2.154   2.187   2.274   2.277   2.400   2.403   2.408   2.509
 54 A    55 A    56 A    57 A    58 A    59 A    60 A    61 A                  
  2.642   2.695   2.776   2.808   3.037   3.071   3.307   3.351
 62 A    63 A    64 A    65 A    66 A    67 A    68 A    69 A                  
  3.458   4.180   4.479   4.641   4.713   5.610
 70 A    71 A    72 A    73 A    74 A    75 A                                  
 

--------------------------------------------------------------------------------
                                   HF Summary                                   
--------------------------------------------------------------------------------
  Energy:                                                 -435.3244314859 a.u.
  Dip. moment [a.u.]:                  [ -57.344214,  184.239974,    1.381223]
  Total dipole [Debye]:                                             490.462559
  <r^2> [a.u.]:                        [ 195.305918,  933.611886,  109.285804]
  Total <r^2> [a.u.]:                                              1238.203609
--------------------------------------------------------------------------------

--------------------------------------------------------------------------------
                                 MP(2) Summary                                  
--------------------------------------------------------------------------------
  Energy contribution:                                      -0.8381888444 a.u.
  Total energy:                                           -436.1626203303 a.u.
  Dip. moment [a.u.]:                  [ -56.703544,  185.530198,    0.817337]
  Total dipole [Debye]:                                             493.108174
  <r^2> [a.u.]:                        [ 193.155702,  944.485766,  108.838148]
  Total <r^2> [a.u.]:                                              1246.479616
--------------------------------------------------------------------------------
  Starting Davidson ... 
--------------------------------------------------------------------------------
   It NVec Conv  Avg. Norm  Max. Norm  Conv. states           Remark
--------------------------------------------------------------------------------
        20    0  2.054e-01  1.060e+00 10.9509 n n n n n n n n Guess.
    1   40    0  5.638e-02  6.113e-01 10.7776 n n n n n n n n 
    2   60    0  3.289e-02  5.141e-01 10.7761 n n n n n n n n 
    3   80    0  9.335e-03  1.603e-01 10.7761 n n n n n n n n 
    4  100    0  3.634e-02  7.118e-01 10.7760 n n n n n n n n 
    5   40    0  2.986e-02  5.837e-01 10.7760 n n n n n n n n Subspace collapsed.
    6   60    0  2.760e-02  5.435e-01 10.7760 n n n n n n n n 
    7   80    0  2.384e-02  4.728e-01 10.7760 n n n n n n n n 
    8  100    2  2.278e-02  4.543e-01 10.7760 y y n n n n n n 
    9   40    4  2.124e-02  4.242e-01 10.7760 y y n y n y n n Subspace collapsed.
   10   60    5  2.137e-02  4.271e-01 10.7760 y y n y n y n y 
   11   80    8  1.891e-02  3.780e-01 10.7760 y y y y y y y y 
   12  100   12  1.901e-02  3.802e-01 10.7760 y y y y y y y y 
   13   40   14  1.834e-02  3.667e-01 10.7760 y y y y y y y y Subspace collapsed.
   14   60   14  1.799e-02  3.599e-01 10.7760 y y y y y y y y 
   15   80   14  1.809e-02  3.617e-01 10.7760 y y y y y y y y 
   16  100   14  1.742e-02  3.484e-01 10.7760 y y y y y y y y 
   17   38   14  1.720e-02  3.440e-01 10.7760 y y y y y y y y Subspace collapsed.
   18   56   14  1.718e-02  3.435e-01 10.7760 y y y y y y y y 
   19   57   14  1.718e-02  3.435e-01 10.7760 y y y y y y y y 
   20   58   14  1.718e-02  3.435e-01 10.7760 y y y y y y y y 
   21   74   15  1.697e-02  3.394e-01 10.7760 y y y y y y y y 
   22   89   15  1.708e-02  3.416e-01 10.7760 y y y y y y y y 
   23   90   15  1.703e-02  3.406e-01 10.7760 y y y y y y y y 
   24  100   15  1.659e-02  3.318e-01 10.7760 y y y y y y y y 
   25   32   15  1.654e-02  3.307e-01 10.7760 y y y y y y y y Subspace collapsed.
   26   44   15  1.642e-02  3.285e-01 10.7760 y y y y y y y y 
   27   56   15  1.633e-02  3.265e-01 10.7760 y y y y y y y y 
   28   57   15  1.632e-02  3.265e-01 10.7760 y y y y y y y y 
   29   68   16  1.625e-02  3.251e-01 10.7760 y y y y y y y y 
   30   71   17  1.622e-02  3.243e-01 10.7760 y y y y y y y y 
   31   73   17  1.617e-02  3.234e-01 10.7760 y y y y y y y y 
   32   73   17  1.617e-02  3.234e-01 10.7760 y y y y y y y y 
   33   93   17  1.591e-02  3.182e-01 10.7760 y y y y y y y y 
   34   99   17  1.573e-02  3.147e-01 10.7760 y y y y y y y y 
   35  100   17  1.571e-02  3.142e-01 10.7760 y y y y y y y y 
   36   26   18  1.572e-02  3.144e-01 10.7760 y y y y y y y y Subspace collapsed.
   37   26   18  1.572e-02  3.144e-01 10.7760 y y y y y y y y 
   38   26   18  1.572e-02  3.144e-01 10.7760 y y y y y y y y 
   39   46   18  1.557e-02  3.115e-01 10.7760 y y y y y y y y 
   40   52   18  1.551e-02  3.103e-01 10.7760 y y y y y y y y 
   41   58   18  3.477e-02  6.223e-01 10.7760 y y y y y y y y 
   42   64   18  3.410e-02  6.077e-01 10.7760 y y y y y y y y 
   43   70   18  3.445e-02  6.157e-01 10.7760 y y y y y y y y 
   44   70   18  3.445e-02  6.157e-01 10.7760 y y y y y y y y 
   45   70   18  3.445e-02  6.157e-01 10.7760 y y y y y y y y 
   46   90   18  3.350e-02  6.005e-01 10.7760 y y y y y y y y 
   47   90   18  3.350e-02  6.005e-01 10.7760 y y y y y y y y 
   48   90   18  3.350e-02  6.005e-01 10.7760 y y y y y y y y 
   49   95   18  3.360e-02  6.033e-01 10.7760 y y y y y y y y 
   50   95   18  3.360e-02  6.033e-01 10.7760 y y y y y y y y 
   51   96   18  3.361e-02  6.033e-01 10.7760 y y y y y y y y 
   52   97   18  3.359e-02  6.031e-01 10.7760 y y y y y y y y 
   53   98   18  3.356e-02  6.032e-01 10.7760 y y y y y y y y 
   54   99   18  3.355e-02  6.030e-01 10.7760 y y y y y y y y 
   55  100   18  3.353e-02  6.027e-01 10.7760 y y y y y y y y 
   56   25   18  3.350e-02  6.023e-01 10.7760 y y y y y y y y Subspace collapsed.
   57   30   18  3.329e-02  5.985e-01 10.7760 y y y y y y y y 
   58   32   18  3.331e-02  5.993e-01 10.7760 y y y y y y y y 
   59   34   18  3.318e-02  5.968e-01 10.7760 y y y y y y y y 
--------------------------------------------------------------------------------
  Davidson Summary: 
 ------------------------------------------------------------
  State  0: excitation energy =  10.7760 a.u.   (converged)
  State  1: excitation energy =  10.8383 a.u.   (converged)
  State  2: excitation energy =  11.1129 a.u.   (converged)
  State  3: excitation energy =  11.1320 a.u.   (converged)
  State  4: excitation energy =  11.1853 a.u.   (converged)
  State  5: excitation energy =  11.1947 a.u.   (converged)
  State  6: excitation energy =  11.2106 a.u.   (converged)
  State  7: excitation energy =  11.2634 a.u.   (converged)
  State  8: excitation energy =  11.4672 a.u.   (converged)
  State  9: excitation energy =  11.5153 a.u.   (converged)
  State 10: excitation energy =  11.5202 a.u.   (converged)
  State 11: excitation energy =  11.5262 a.u.   (converged)
  State 12: excitation energy =  11.5341 a.u.   (converged)
  State 13: excitation energy =  11.5489 a.u.   (converged)
  State 14: excitation energy =  11.6554 a.u.   (converged)
  State 15: excitation energy =  11.6774 a.u.   (converged)
  State 16: excitation energy =  11.8670 a.u.   (converged)
  State 17: excitation energy =  11.8678 a.u.   (converged)
  State 18: excitation energy =  11.9256 a.u.   (not converged)
  State 19: excitation energy =  12.1379 a.u.   (not converged)
 ------------------------------------------------------------


--------------------------------------------------------------------------------
                             Excited State Summary
--------------------------------------------------------------------------------

  Excited state  1 (A)                                             [converged]
  ----------------------------------------------------------------------------
  Term symbol:  2 (-) A                                     R^2 =  3.48989e-11

  Total energy:                                           -425.3865711257 a.u.
  Excitation energy:                                             293.231212 eV

  Osc. strength:                                                      0.000000
  Trans. dip. moment [a.u.]:           [  -0.000000,   -0.000000,    0.000000]
  <i|r^2|0> [a.u.]:                    [   0.000000,   -0.000000,   -0.000000]

  V1^2 = 0.9484, V2^2 = 0.0516

  Important amplitudes:
     core i     occ j      vir a      vir b          v   
    ------------------------------------------------------
     5 (A) A              22 (A) A                -0.6476
     5 (A) B              22 (A) B                 0.6476
    ------------------------------------------------------
  ----------------------------------------------------------------------------


  Excited state  2 (A)                                             [converged]
  ----------------------------------------------------------------------------
  Term symbol:  3 (-) A                                     R^2 =  1.15026e-10

  Total energy:                                           -425.3242903224 a.u.
  Excitation energy:                                             294.925959 eV

  Osc. strength:                                                      0.073295
  Trans. dip. moment [a.u.]:           [   0.020786,    0.095143,   -0.025684]
  <i|r^2|0> [a.u.]:                    [  -0.023416,    1.086445,    0.032334]

  V1^2 = 0.9411, V2^2 = 0.0589

  Important amplitudes:
     core i     occ j      vir a      vir b          v   
    ------------------------------------------------------
     5 (A) B              22 (A) B                 0.6601
     5 (A) A              22 (A) A                 0.6601
    ------------------------------------------------------
  ----------------------------------------------------------------------------


  Excited state  3 (A)                                             [converged]
  ----------------------------------------------------------------------------
  Term symbol:  4 (-) A                                     R^2 =  7.82608e-12

  Total energy:                                           -425.0497351963 a.u.
  Excitation energy:                                             302.396984 eV

  Osc. strength:                                                      0.000000
  Trans. dip. moment [a.u.]:           [  -0.000000,   -0.000000,    0.000000]
  <i|r^2|0> [a.u.]:                    [   0.000000,   -0.000000,   -0.000000]

  V1^2 = 0.9465, V2^2 = 0.0535

  Important amplitudes:
     core i     occ j      vir a      vir b          v   
    ------------------------------------------------------
     5 (A) B              23 (A) B                -0.5415
     5 (A) A              23 (A) A                 0.5415
    ------------------------------------------------------
  ----------------------------------------------------------------------------


  Excited state  4 (A)                                             [converged]
  ----------------------------------------------------------------------------
  Term symbol:  5 (-) A                                     R^2 =  1.05358e-10

  Total energy:                                           -425.0306028008 a.u.
  Excitation energy:                                             302.917603 eV

  Osc. strength:                                                      0.000000
  Trans. dip. moment [a.u.]:           [  -0.000000,   -0.000000,   -0.000000]
  <i|r^2|0> [a.u.]:                    [  -0.000000,   -0.000000,    0.000000]

  V1^2 = 0.9291, V2^2 = 0.0709

  Important amplitudes:
     core i     occ j      vir a      vir b          v   
    ------------------------------------------------------
     5 (A) A              24 (A) A                -0.5330
     5 (A) B              24 (A) B                 0.5330
    ------------------------------------------------------
  ----------------------------------------------------------------------------


  Excited state  5 (A)                                             [converged]
  ----------------------------------------------------------------------------
  Term symbol:  6 (-) A                                     R^2 =  4.68412e-11

  Total energy:                                           -424.9772923800 a.u.
  Excitation energy:                                             304.368253 eV

  Osc. strength:                                                      0.111850
  Trans. dip. moment [a.u.]:           [   0.010123,   -0.031973,   -0.117791]
  <i|r^2|0> [a.u.]:                    [  -0.014861,   -0.362675,    0.115631]

  V1^2 = 0.9370, V2^2 = 0.0630

  Important amplitudes:
     core i     occ j      vir a      vir b          v   
    ------------------------------------------------------
     5 (A) B              23 (A) B                -0.5750
     5 (A) A              23 (A) A                -0.5750
    ------------------------------------------------------
  ----------------------------------------------------------------------------


  Excited state  6 (A)                                             [converged]
  ----------------------------------------------------------------------------
  Term symbol:  7 (-) A                                     R^2 =  8.17663e-11

  Total energy:                                           -424.9679256492 a.u.
  Excitation energy:                                             304.623135 eV

  Osc. strength:                                                      0.000000
  Trans. dip. moment [a.u.]:           [  -0.000000,    0.000000,    0.000000]
  <i|r^2|0> [a.u.]:                    [   0.000000,    0.000000,   -0.000000]

  V1^2 = 0.9410, V2^2 = 0.0590

  Important amplitudes:
     core i     occ j      vir a      vir b          v   
    ------------------------------------------------------
     5 (A) B              25 (A) B                -0.4342
     5 (A) A              25 (A) A                 0.4342
    ------------------------------------------------------
  ----------------------------------------------------------------------------


  Excited state  7 (A)                                             [converged]
  ----------------------------------------------------------------------------
  Term symbol:  8 (-) A                                     R^2 =  1.70647e-10

  Total energy:                                           -424.9520222523 a.u.
  Excitation energy:                                             305.055888 eV

  Osc. strength:                                                      0.049382
  Trans. dip. moment [a.u.]:           [  -0.064229,   -0.049234,    0.007618]
  <i|r^2|0> [a.u.]:                    [   0.109922,   -0.531911,    0.006605]

  V1^2 = 0.9167, V2^2 = 0.0833

  Important amplitudes:
     core i     occ j      vir a      vir b          v   
    ------------------------------------------------------
     5 (A) B              24 (A) B                 0.5604
     5 (A) A              24 (A) A                 0.5604
    ------------------------------------------------------
  ----------------------------------------------------------------------------


  Excited state  8 (A)                                             [converged]
  ----------------------------------------------------------------------------
  Term symbol:  9 (-) A                                     R^2 =  3.90232e-11

  Total energy:                                           -424.8991783706 a.u.
  Excitation energy:                                             306.493843 eV

  Osc. strength:                                                      0.091034
  Trans. dip. moment [a.u.]:           [  -0.098069,    0.045076,   -0.021773]
  <i|r^2|0> [a.u.]:                    [   0.143021,    0.501499,    0.010700]

  V1^2 = 0.9299, V2^2 = 0.0701

  Important amplitudes:
     core i     occ j      vir a      vir b          v   
    ------------------------------------------------------
     5 (A) A              25 (A) A                -0.4962
     5 (A) B              25 (A) B                -0.4962
    ------------------------------------------------------
  ----------------------------------------------------------------------------


  Excited state  9 (A)                                             [converged]
  ----------------------------------------------------------------------------
  Term symbol:  10 (-) A                                    R^2 =  7.15442e-10

  Total energy:                                           -424.6954235190 a.u.
  Excitation energy:                                             312.038295 eV

  Osc. strength:                                                      0.000000
  Trans. dip. moment [a.u.]:           [  -0.000000,    0.000000,    0.000000]
  <i|r^2|0> [a.u.]:                    [   0.000000,    0.000000,    0.000000]

  V1^2 = 0.9107, V2^2 = 0.0893

  Important amplitudes:
     core i     occ j      vir a      vir b          v   
    ------------------------------------------------------
     5 (A) A              26 (A) A                 0.6199
     5 (A) B              26 (A) B                -0.6199
    ------------------------------------------------------
  ----------------------------------------------------------------------------


  Excited state 10 (A)                                             [converged]
  ----------------------------------------------------------------------------
  Term symbol:  11 (-) A                                    R^2 =  1.13001e-10

  Total energy:                                           -424.6473320374 a.u.
  Excitation energy:                                             313.346930 eV

  Osc. strength:                                                      0.000000
  Trans. dip. moment [a.u.]:           [   0.000000,    0.000000,   -0.000000]
  <i|r^2|0> [a.u.]:                    [  -0.000000,    0.000000,    0.000000]

  V1^2 = 0.8855, V2^2 = 0.1145

  Important amplitudes:
     core i     occ j      vir a      vir b          v   
    ------------------------------------------------------
     5 (A) A              27 (A) A                 0.5382
     5 (A) B              27 (A) B                -0.5382
    ------------------------------------------------------
  ----------------------------------------------------------------------------


  Excited state 11 (A)                                             [converged]
  ----------------------------------------------------------------------------
  Term symbol:  12 (-) A                                    R^2 =  5.49267e-10

  Total energy:                                           -424.6424127519 a.u.
  Excitation energy:                                             313.480791 eV

  Osc. strength:                                                      0.025497
  Trans. dip. moment [a.u.]:           [   0.018089,    0.052125,   -0.016602]
  <i|r^2|0> [a.u.]:                    [  -0.006431,    0.610269,    0.037467]

  V1^2 = 0.9100, V2^2 = 0.0900

  Important amplitudes:
     core i     occ j      vir a      vir b          v   
    ------------------------------------------------------
     5 (A) B              26 (A) B                -0.6510
     5 (A) A              26 (A) A                -0.6510
    ------------------------------------------------------
  ----------------------------------------------------------------------------


  Excited state 12 (A)                                             [converged]
  ----------------------------------------------------------------------------
  Term symbol:  13 (-) A                                    R^2 =  6.10560e-10

  Total energy:                                           -424.6364601555 a.u.
  Excitation energy:                                             313.642769 eV

  Osc. strength:                                                      0.000000
  Trans. dip. moment [a.u.]:           [  -0.000000,    0.000000,   -0.000000]
  <i|r^2|0> [a.u.]:                    [   0.000000,    0.000000,    0.000000]

  V1^2 = 0.8853, V2^2 = 0.1147

  Important amplitudes:
     core i     occ j      vir a      vir b          v   
    ------------------------------------------------------
     5 (A) A              28 (A) A                -0.4670
     5 (A) B              28 (A) B                 0.4670
    ------------------------------------------------------
  ----------------------------------------------------------------------------


  Excited state 13 (A)                                             [converged]
  ----------------------------------------------------------------------------
  Term symbol:  14 (-) A                                    R^2 =  1.38455e-10

  Total energy:                                           -424.6285694684 a.u.
  Excitation energy:                                             313.857486 eV

  Osc. strength:                                                      0.035280
  Trans. dip. moment [a.u.]:           [   0.010499,   -0.026883,   -0.061281]
  <i|r^2|0> [a.u.]:                    [  -0.014929,   -0.302324,    0.060134]

  V1^2 = 0.8891, V2^2 = 0.1109

  Important amplitudes:
     core i     occ j      vir a      vir b          v   
    ------------------------------------------------------
     5 (A) B              27 (A) B                 0.5830
     5 (A) A              27 (A) A                 0.5830
    ------------------------------------------------------
  ----------------------------------------------------------------------------


  Excited state 14 (A)                                             [converged]
  ----------------------------------------------------------------------------
  Term symbol:  15 (-) A                                    R^2 =  7.87681e-10

  Total energy:                                           -424.6137258149 a.u.
  Excitation energy:                                             314.261402 eV

  Osc. strength:                                                      0.043337
  Trans. dip. moment [a.u.]:           [   0.069575,   -0.021426,    0.018137]
  <i|r^2|0> [a.u.]:                    [  -0.100368,   -0.238097,   -0.012490]

  V1^2 = 0.8913, V2^2 = 0.1087

  Important amplitudes:
     core i     occ j      vir a      vir b          v   
    ------------------------------------------------------
     5 (A) B              28 (A) B                 0.5434
     5 (A) A              28 (A) A                 0.5434
    ------------------------------------------------------
  ----------------------------------------------------------------------------


  Excited state 15 (A)                                             [converged]
  ----------------------------------------------------------------------------
  Term symbol:  16 (-) A                                    R^2 =  4.56627e-09

  Total energy:                                           -424.5071787386 a.u.
  Excitation energy:                                             317.160696 eV

  Osc. strength:                                                      0.000000
  Trans. dip. moment [a.u.]:           [  -0.000000,    0.000000,    0.000000]
  <i|r^2|0> [a.u.]:                    [   0.000000,    0.000000,   -0.000000]

  V1^2 = 0.8675, V2^2 = 0.1325

  Important amplitudes:
     core i     occ j      vir a      vir b          v   
    ------------------------------------------------------
     5 (A) A              29 (A) A                 0.6136
     5 (A) B              29 (A) B                -0.6136
    ------------------------------------------------------
  ----------------------------------------------------------------------------


  Excited state 16 (A)                                             [converged]
  ----------------------------------------------------------------------------
  Term symbol:  17 (-) A                                    R^2 =  5.01249e-09

  Total energy:                                           -424.4851838256 a.u.
  Excitation energy:                                             317.759208 eV

  Osc. strength:                                                      0.014357
  Trans. dip. moment [a.u.]:           [  -0.015774,   -0.037291,    0.014309]
  <i|r^2|0> [a.u.]:                    [   0.035977,   -0.409588,   -0.000003]

  V1^2 = 0.8696, V2^2 = 0.1304

  Important amplitudes:
     core i     occ j      vir a      vir b          v   
    ------------------------------------------------------
     5 (A) B              29 (A) B                -0.6360
     5 (A) A              29 (A) A                -0.6360
    ------------------------------------------------------
  ----------------------------------------------------------------------------


  Excited state 17 (A)                                             [converged]
  ----------------------------------------------------------------------------
  Term symbol:  18 (-) A                                    R^2 =  9.69516e-09

  Total energy:                                           -424.2956615578 a.u.
  Excitation energy:                                             322.916371 eV

  Osc. strength:                                                      0.000000
  Trans. dip. moment [a.u.]:           [  -0.000000,    0.000000,    0.000000]
  <i|r^2|0> [a.u.]:                    [   0.000000,    0.000000,    0.000000]

  V1^2 = 0.0051, V2^2 = 0.9949

  Important amplitudes:
     core i     occ j      vir a      vir b          v   
    ------------------------------------------------------
     5 (A) A   21 (A) B   22 (A) A   22 (A) B      0.4985
     5 (A) B   21 (A) A   22 (A) A   22 (A) B      0.4985
    ------------------------------------------------------
  ----------------------------------------------------------------------------


  Excited state 18 (A)                                             [converged]
  ----------------------------------------------------------------------------
  Term symbol:  19 (-) A                                    R^2 =  1.35331e-08

  Total energy:                                           -424.2948669839 a.u.
  Excitation energy:                                             322.937992 eV

  Osc. strength:                                                      0.000060
  Trans. dip. moment [a.u.]:           [  -0.000593,   -0.002667,    0.000323]
  <i|r^2|0> [a.u.]:                    [  -0.001216,   -0.030870,   -0.002585]

  V1^2 = 0.0063, V2^2 = 0.9937

  Important amplitudes:
     core i     occ j      vir a      vir b          v   
    ------------------------------------------------------
     5 (A) B   21 (A) A   22 (A) A   22 (A) B      0.4982
     5 (A) A   21 (A) B   22 (A) A   22 (A) B     -0.4982
    ------------------------------------------------------
  ----------------------------------------------------------------------------


  Excited state 19 (A)                                         [not converged]
  ----------------------------------------------------------------------------
  Term symbol:  20 (-) A                                    R^2 =  2.90416e-01

  Total energy:                                           -424.2369745885 a.u.
  Excitation energy:                                             324.513325 eV


  V1^2 = 0.0013, V2^2 = 0.9987

  Important amplitudes:
     core i     occ j      vir a      vir b          v   
    ------------------------------------------------------
     5 (A) B   20 (A) A   22 (A) A   22 (A) B      0.4923
     5 (A) A   20 (A) B   22 (A) A   22 (A) B     -0.4895
    ------------------------------------------------------
  ----------------------------------------------------------------------------


  Excited state 20 (A)                                         [not converged]
  ----------------------------------------------------------------------------
  Term symbol:  21 (-) A                                    R^2 =  5.96775e-01

  Total energy:                                           -424.0247358662 a.u.
  Excitation energy:                                             330.288634 eV


  V1^2 = 0.0252, V2^2 = 0.9748

  Important amplitudes:
     core i     occ j      vir a      vir b          v   
    ------------------------------------------------------
     5 (A) A   20 (A) B   22 (A) A   22 (A) B     -0.4032
     5 (A) B   20 (A) A   22 (A) A   22 (A) B     -0.4027
    ------------------------------------------------------
  ----------------------------------------------------------------------------


--------------------------------------------------------------------------------
  Time of ADC calculation:  CPU 3661.15 s  wall 2257.51 s
================================================================================
 
 --------------------------------------------------------------
 
                    Orbital Energies (a.u.)
 --------------------------------------------------------------
 
 Alpha MOs
 -- Occupied --
-26.557 -26.514 -26.505 -25.982 -11.734  -1.937  -1.830  -1.785
 -1.236  -1.110  -1.007  -0.998  -0.952  -0.845  -0.839  -0.825
 -0.793  -0.786  -0.346  -0.346  -0.321
 -- Virtual --
 -0.094   0.309   0.330   0.350   0.543   0.566   0.624   0.698
  1.180   1.218   1.239   1.263   1.283   1.385   1.478   1.487
  1.498   1.519   1.535   1.544   1.632   1.742   1.789   1.807
  1.861   1.939   1.958   1.972   1.995   2.041   2.049   2.124
  2.154   2.187   2.274   2.277   2.400   2.403   2.408   2.509
  2.642   2.695   2.776   2.808   3.037   3.071   3.307   3.351
  3.458   4.180   4.479   4.641   4.713   5.610
 
 Beta MOs
 -- Occupied --
-26.557 -26.514 -26.505 -25.982 -11.734  -1.937  -1.830  -1.785
 -1.236  -1.110  -1.007  -0.998  -0.952  -0.845  -0.839  -0.825
 -0.793  -0.786  -0.346  -0.346  -0.321
 -- Virtual --
 -0.094   0.309   0.330   0.350   0.543   0.566   0.624   0.698
  1.180   1.218   1.239   1.263   1.283   1.385   1.478   1.487
  1.498   1.519   1.535   1.544   1.632   1.742   1.789   1.807
  1.861   1.939   1.958   1.972   1.995   2.041   2.049   2.124
  2.154   2.187   2.274   2.277   2.400   2.403   2.408   2.509
  2.642   2.695   2.776   2.808   3.037   3.071   3.307   3.351
  3.458   4.180   4.479   4.641   4.713   5.610
 --------------------------------------------------------------
 
          Ground-State Mulliken Net Atomic Charges

     Atom                 Charge (a.u.)    Spin (a.u.)
  --------------------------------------------------------
      1 C                     1.182896       0.000000
      2 F                    -0.084602       0.000000
      3 F                    -0.113574       0.000000
      4 F                    -0.829351       0.000000
      5 F                    -0.155369       0.000000
  --------------------------------------------------------
  Sum of atomic charges =     0.000000
  Sum of spin   charges =     0.000000

 -----------------------------------------------------------------
                    Cartesian Multipole Moments
 -----------------------------------------------------------------
    Charge (ESU x 10^10)
                 0.0000
    Dipole Moment (Debye)
         X       4.6782      Y       8.4940      Z      -3.7797
       Tot      10.4077
    Quadrupole Moments (Debye-Ang)
        XX     -31.2544     XY       1.3987     YY      10.4594
        XZ       4.4519     YZ      -5.4602     ZZ     -24.8121
    Octopole Moments (Debye-Ang^2)
       XXX      63.2777    XXY     -59.7087    XYY      10.2807
       YYY     -50.0776    XXZ      -6.6633    XYZ       4.0122
       YYZ     -12.7263    XZZ      19.2218    YZZ     -54.6778
       ZZZ      -2.4161
    Hexadecapole Moments (Debye-Ang^3)
      XXXX    -190.4814   XXXY     106.6247   XXYY    -176.0443
      XYYY      68.7152   YYYY    -509.4825   XXXZ      21.3899
      XXYZ       0.0206   XYYZ       8.0378   YYYZ     -23.7542
      XXZZ     -47.1951   XYZZ      33.5262   YYZZ    -159.3126
      XZZZ      13.8666   YZZZ      14.0421   ZZZZ     -92.7514
 -----------------------------------------------------------------
Archival summary:
1\1\tp-linux1\SP\HF\6-31G*\41\thomas\SatMar1810:37:372017SatMar1810:37:372017\0\\#,HF,6-31G*,\\0,1\F\C,1,1.29527\F,2,1.21004,1,116.797\F,2,1.28654,1,110.796,3,-138.817,0\F,1,2.3027,2,89.5028,3,75.4242,0\\HF=-435.324431\\@

 Total job time:  2262.36s(wall), 3678.78s(cpu) 
 Sat Mar 18 10:37:37 2017

        *************************************************************
        *                                                           *
        *  Thank you very much for using Q-Chem.  Have a nice day.  *
        *                                                           *
        *************************************************************


0 sent ACK to 0 
now end server 0 ... 
cleanup process ... done
