
Running Job 1 of 2 ddtraj1t23.inp
qchem ddtraj1t23.inp_25100.0 /scratch/qchem/qchem25100/ 1
/mnt/software/qchem/bin/mpi/mpirun_qchem -machinefile /mnt/software/qchem/bin/mpi/machines -np 1 /mnt/software/qchem/exe/qcprog.exe ddtraj1t23.inp_25100.0 /scratch/qchem/qchem25100/

Process 0 of 1 is on tp-linux1 - thread support 0
initial socket setup ...start
initial socket setup ...done 
now start server 0 ... 

cmd = ssh tp-linux1 /mnt/software/qchem/bin/get_hostid 265125168 > /scratch/qchem/qchem25100/lic.dat
                  Welcome to Q-Chem
     A Quantum Leap Into The Future Of Chemistry


 Q-Chem 4.3, Q-Chem, Inc., Pleasanton, CA (2015)

 Y. Shao,  Z. Gan,  E. Epifanovsky,  A. T. B. Gilbert,  M. Wormit,  
 J. Kussmann,  A. W. Lange,  A. Behn,  J. Deng,  X. Feng,  D. Ghosh,  
 M. Goldey,  P. R. Horn,  L. D. Jacobson,  I. Kaliman,  R. Z. Khaliullin,  
 T. Kus,  A. Landau,  J. Liu,  E. I. Proynov,  Y. M. Rhee,  R. M. Richard,  
 M. A. Rohrdanz,  R. P. Steele,  E. J. Sundstrom,  H. L. Woodcock III,  
 P. M. Zimmerman,  D. Zuev,  B. Albrecht,  E. Alguire,  B. Austin,  
 S. A. Baeppler,  G. J. O. Beran,  Y. A. Bernard,  E. Berquist,  
 K. Brandhorst,  K. B. Bravaya,  S. T. Brown,  D. Casanova,  C.-M. Chang,  
 Y. Chen,  S. H. Chien,  K. D. Closser,  D. L. Crittenden,  M. Diedenhofen,  
 R. A. DiStasio Jr.,  H. Do,  A. D. Dutoi,  R. G. Edgar,  P.-T. Fang,  
 S. Fatehi,  Q. Feng,  L. Fusti-Molnar,  A. Ghysels,  
 A. Golubeva-Zadorozhnaya,  J. Gomes,  A. Gunina,  M. W. D. Hanson-Heine,  
 P. H. P. Harbach,  A. W. Hauser,  E. G. Hohenstein,  Z. C. Holden,  K. Hui,  
 T.-C. Jagau,  H. Ji,  B. Kaduk,  K. Khistyaev,  Jaehoon Kim,  Jihan Kim,  
 R. A. King,  P. Klunzinger,  D. Kosenkov,  T. Kowalczyk,  C. M. Krauter,  
 K. U. Lao,  A. Laurent,  K. V. Lawler,  S. Lehtola,  S. V. Levchenko,  
 C. Y. Lin,  Y.-S. Lin,  F. Liu,  E. Livshits,  R. C. Lochan,  A. Luenser,  
 P. Manohar,  S. F. Manzer,  S.-P. Mao,  N. Mardirossian,  A. V. Marenich,  
 L. A. Martinez-Martinez,  S. A. Maurer,  N. J. Mayhall,  K. Nanda,  
 C. M. Oana,  R. Olivares-Amaya,  D. P. O'Neill,  J. A. Parkhill,  
 T. M. Perrine,  R. Peverati,  P. A. Pieniazek,  F. Plasser,  A. Prociuk,  
 D. R. Rehn,  E. Rosta,  N. J. Russ,  N. Sergueev,  S. M. Sharada,  
 S. Sharma,  D. W. Small,  A. Sodt,  T. Stauch,  T. Stein,  D. Stuck,  
 Y.-C. Su,  A. J. W. Thom,  T. Tsuchimochi,  L. Vogt,  O. Vydrov,  T. Wang,  
 M. A. Watson,  J. Wenzel,  A. White,  C. F. Williams,  V. Vanovschi,  
 S. Yeganeh,  S. R. Yost,  Z.-Q. You,  I. Y. Zhang,  X. Zhang,  Y. Zhao,  
 B. R. Brooks,  G. K. L. Chan,  D. M. Chipman,  C. J. Cramer,  
 W. A. Goddard III,  M. S. Gordon,  W. J. Hehre,  A. Klamt,  
 H. F. Schaefer III,  M. W. Schmidt,  C. D. Sherrill,  D. G. Truhlar,  
 A. Warshel,  X. Xu,  A. Aspuru-Guzik,  R. Baer,  A. T. Bell,  N. A. Besley,  
 J.-D. Chai,  A. Dreuw,  B. D. Dunietz,  T. R. Furlani,  S. R. Gwaltney,  
 C.-P. Hsu,  Y. Jung,  J. Kong,  D. S. Lambrecht,  W. Liang,  C. Ochsenfeld,  
 V. A. Rassolov,  L. V. Slipchenko,  J. E. Subotnik,  T. Van Voorhis,  
 J. M. Herbert,  A. I. Krylov,  P. M. W. Gill,  M. Head-Gordon

 Contributors to earlier versions of Q-Chem not listed above: 
 R. D. Adamson,  J. Baker,  E. F. C. Byrd,  A. K. Chakraborty,  C.-L. Cheng,  
 H. Dachsel,  R. J. Doerksen,  G. Hawkins,  A. Heyden,  S. Hirata,  
 G. Kedziora,  F. J. Keil,  C. Kelley,  P. P. Korambath,  W. Kurlancheek,  
 A. M. Lee,  M. S. Lee,  D. Liotard,  I. Lotan,  P. E. Maslen,  N. Nair,  
 D. Neuhauser,  R. Olson,  B. Peters,  J. Ritchie,  N. E. Schultz,  
 N. Shenvi,  A. C. Simmonett,  K. S. Thanthiriwatte,  Q. Wu,  W. Zhang

 Please cite Q-Chem as follows:
 Y. Shao et al., Mol. Phys. 113, 184-215 (2015)
 DOI: 10.1080/00268976.2014.952696

 Q-Chem 4.3.0 for Intel X86 Linux

 Parts of Q-Chem use Armadillo 5.200.1 (Boston Tea Smuggler).
 http://arma.sourceforge.net/

 Q-Chem begins on Wed Mar 15 21:36:53 2017  

Host: 
0

     Scratch files written to /scratch/qchem/qchem25100//
 Nov1815 1189b_ 19540  19532 5443   
 Parallel job on  1  processors
Processing $rem in /mnt/software/qchem/config/preferences.
 MEM_TOTAL  2000 

Checking the input file for inconsistencies... 	...done.

--------------------------------------------------------------
User input:
--------------------------------------------------------------
$comment
XAS calculation for the 2b valence excited for water using cvs-adc(2)-x + 6-311+G* basis set
job 1 - determination of HF orbitals
$end

$molecule
0 1
6  -0.441888  3.012535  -0.21352
9  0.583876  2.380573  -0.025201
9  -1.113098  3.286076  0.745792
9  -1.313466  0.726229  0.630461
9  -1.115797  2.585148  -1.221074
$end

$rem
jobtype      sp
sym_ignore true
exchange     hf
basis        6-31G*
unrestricted true
$end

--------------------------------------------------------------
 ----------------------------------------------------------------
             Standard Nuclear Orientation (Angstroms)
    I     Atom           X                Y                Z
 ----------------------------------------------------------------
    1      C      -0.4418880000     3.0125350000    -0.2135200000
    2      F       0.5838760000     2.3805730000    -0.0252010000
    3      F      -1.1130980000     3.2860760000     0.7457920000
    4      F      -1.3134660000     0.7262290000     0.6304610000
    5      F      -1.1157970000     2.5851480000    -1.2210740000
 ----------------------------------------------------------------
 Nuclear Repulsion Energy =   191.6571030898 hartrees
 There are       21 alpha and       21 beta electrons
 Requested basis set is 6-31G(d)
 There are 20 shells and 75 basis functions

 Total QAlloc Memory Limit   2000 MB
 Mega-Array Size        61 MB
 MEM_STATIC part        62 MB

                       Distance Matrix (Angstroms)
             C (  1)   F (  2)   F (  3)   F (  4)
   F (  2)  1.219439
   F (  3)  1.202342  2.072218
   F (  4)  2.588271  2.601279  2.570266
   F (  5)  1.285293  2.088265  2.088030  2.631128
 
 tim1(1): 
  0.000000000000000E+000
 tim1(2): 
  0.000000000000000E+000
 A cutoff of  1.0D-08 yielded    196 shell pairs
 There are      2950 function pairs
 
 -------------------------------------------------------
 OpenMP Integral Computing Module                       
 Release: version 1.0, May 2013, Q-Chem Inc. Pittsburgh 
 -------------------------------------------------------
 Integral Job Info:
 Integral job number is                      11
 Integral operator is                         1
 short-range coefficients                     0
 long-range coefficients              100000000
 Omega coefficients                           0
 if combine SR and LR in K                    0
 Integral screening is                        0
 Integral computing path is                   2
 max size of driver memory is            800000
 size of driver memory is                593474
 size of scratch memory is              2260544
 max col of scratch BK array               1296
 max len of scratch array in speh3          155
 max len of scratch index in speh4           18
 max int batch size is                      520
 min int batch size is                       52
 fixed nKL is                                52
 max L of basis functions is                  2
 order of int derivative is                   0
 number of shells is                         20
 number of basis is                          75
 number of cartesian basis is                75
 number of contracted shell pairs           196
 number of primitive shell pairs            948
 maxK2 (contraction) of shell pair           36
 max number of K2 of shell pair               1
 max number of CS2 of shell pair             26
 max number of PS2 of shell pair            180
 mem total for path MDJ                   21832
 -------------------------------------------------------
 Smallest overlap matrix eigenvalue = 1.81E-03

 Scale SEOQF with 1.000000e+00/1.000000e-01/1.000000e+00

 Standard Electronic Orientation quadrupole field applied
 Nucleus-field energy     =     0.0000000103 hartrees
 Guess from superposition of atomic densities
 Warning:  Energy on first SCF cycle will be non-variational
 An unrestricted Hartree-Fock SCF calculation will be
 performed using Pulay DIIS extrapolation
 SCF converges when DIIS error is below 1.0E-05
 using 8 threads for integral computing 
 ---------------------------------------
  Cycle       Energy         DIIS Error
 ---------------------------------------
    1    -436.3056561079      8.97E-02
    2    -435.0647649347      2.19E-02
    3    -433.9234848080      4.05E-02
    4    -435.2623641400      1.18E-02
    5    -435.3026619591      7.28E-03
    6    -435.3292758162      2.68E-03
    7    -435.3335671957      9.16E-04
    8    -435.3344090709      1.66E-04
    9    -435.3345744099      1.05E-04
   10    -435.3346651845      9.22E-05
   11    -435.3347338095      5.78E-05
   12    -435.3347532524      8.34E-06 Convergence criterion met
 ---------------------------------------
 <S^2> = 0.0000
 SCF time:  CPU 12.32 s  wall 2.86 s
 SCF   energy in the final basis set = -435.3347532524
 Total energy in the final basis set = -435.3347532524
 
 --------------------------------------------------------------
 
                    Orbital Energies (a.u.)
 --------------------------------------------------------------
 
 Alpha MOs
 -- Occupied --
-26.548 -26.540 -26.510 -25.956 -11.743  -1.958  -1.861  -1.808
 -1.216  -1.118  -1.029  -1.018  -0.967  -0.863  -0.850  -0.832
 -0.808  -0.802  -0.325  -0.325  -0.318
 -- Virtual --
 -0.089   0.325   0.355   0.369   0.538   0.578   0.625   0.722
  1.192   1.200   1.224   1.278   1.281   1.385   1.472   1.489
  1.492   1.510   1.524   1.532   1.634   1.776   1.781   1.860
  1.870   1.933   1.962   1.965   1.993   2.034   2.045   2.099
  2.215   2.231   2.310   2.317   2.417   2.417   2.432   2.437
  2.690   2.723   2.815   2.944   3.077   3.117   3.354   3.379
  3.507   4.191   4.473   4.650   4.782   6.442
 
 Beta MOs
 -- Occupied --
-26.548 -26.540 -26.510 -25.956 -11.743  -1.958  -1.861  -1.808
 -1.216  -1.118  -1.029  -1.018  -0.967  -0.863  -0.850  -0.832
 -0.808  -0.802  -0.325  -0.325  -0.318
 -- Virtual --
 -0.089   0.325   0.355   0.369   0.538   0.578   0.625   0.722
  1.192   1.200   1.224   1.278   1.281   1.385   1.472   1.489
  1.492   1.510   1.524   1.532   1.634   1.776   1.781   1.860
  1.870   1.933   1.962   1.965   1.993   2.034   2.045   2.099
  2.215   2.231   2.310   2.317   2.417   2.417   2.432   2.437
  2.690   2.723   2.815   2.944   3.077   3.117   3.354   3.379
  3.507   4.191   4.473   4.650   4.782   6.442
 --------------------------------------------------------------
 
          Ground-State Mulliken Net Atomic Charges

     Atom                 Charge (a.u.)    Spin (a.u.)
  --------------------------------------------------------
      1 C                     1.169072       0.000000
      2 F                    -0.078822       0.000000
      3 F                    -0.053483       0.000000
      4 F                    -0.881643       0.000000
      5 F                    -0.155124       0.000000
  --------------------------------------------------------
  Sum of atomic charges =     0.000000
  Sum of spin   charges =     0.000000

 -----------------------------------------------------------------
                    Cartesian Multipole Moments
 -----------------------------------------------------------------
    Charge (ESU x 10^10)
                 0.0000
    Dipole Moment (Debye)
         X       3.7767      Y       9.7450      Z      -3.2368
       Tot      10.9410
    Quadrupole Moments (Debye-Ang)
        XX     -29.0608     XY      -1.0020     YY      15.0717
        XZ       3.4000     YZ      -4.0786     ZZ     -24.3075
    Octopole Moments (Debye-Ang^2)
       XXX      57.8695    XXY     -55.7046    XYY       4.0814
       YYY     -32.1076    XXZ      -4.4026    XYZ       2.2895
       YYZ      -9.1839    XZZ      18.0148    YZZ     -53.4013
       ZZZ      -1.4965
    Hexadecapole Moments (Debye-Ang^3)
      XXXX    -160.9088   XXXY     105.6360   XXYY    -166.7252
      XYYY      56.8490   YYYY    -454.7629   XXXZ      10.9053
      XXYZ       1.9950   XYYZ       2.4029   YYYZ     -16.5958
      XXZZ     -40.1220   XYZZ      34.1004   YYZZ    -156.8182
      XZZZ       6.4601   YZZZ      12.7145   ZZZZ     -81.8278
 -----------------------------------------------------------------
Archival summary:
1\1\tp-linux1\SP\HF\6-31G*\41\thomas\WedMar1521:36:572017WedMar1521:36:572017\0\\#,HF,6-31G*,\\0,1\F\C,1,1.20234\F,2,1.21944,1,117.663\F,2,1.28529,1,114.105,3,-135.78,0\F,1,2.57027,2,77.3575,3,66.6868,0\\HF=-435.334753\\@

 Total job time:  3.19s(wall), 14.06s(cpu) 
 Wed Mar 15 21:36:57 2017

        *************************************************************
        *                                                           *
        *  Thank you very much for using Q-Chem.  Have a nice day.  *
        *                                                           *
        *************************************************************


0 sent ACK to 0 
now end server 0 ... 
cleanup process ... done

Running Job 2 of 2 ddtraj1t23.inp
qchem ddtraj1t23.inp_25100.1 /scratch/qchem/qchem25100/ 1
/mnt/software/qchem/bin/mpi/mpirun_qchem -machinefile /mnt/software/qchem/bin/mpi/machines -np 1 /mnt/software/qchem/exe/qcprog.exe ddtraj1t23.inp_25100.1 /scratch/qchem/qchem25100/

Process 0 of 1 is on tp-linux1 - thread support 0
initial socket setup ...start
initial socket setup ...done 
now start server 0 ... 

cmd = ssh tp-linux1 /mnt/software/qchem/bin/get_hostid 1654327409 > /scratch/qchem/qchem25100/lic.dat
                  Welcome to Q-Chem
     A Quantum Leap Into The Future Of Chemistry


 Q-Chem 4.3, Q-Chem, Inc., Pleasanton, CA (2015)

 Y. Shao,  Z. Gan,  E. Epifanovsky,  A. T. B. Gilbert,  M. Wormit,  
 J. Kussmann,  A. W. Lange,  A. Behn,  J. Deng,  X. Feng,  D. Ghosh,  
 M. Goldey,  P. R. Horn,  L. D. Jacobson,  I. Kaliman,  R. Z. Khaliullin,  
 T. Kus,  A. Landau,  J. Liu,  E. I. Proynov,  Y. M. Rhee,  R. M. Richard,  
 M. A. Rohrdanz,  R. P. Steele,  E. J. Sundstrom,  H. L. Woodcock III,  
 P. M. Zimmerman,  D. Zuev,  B. Albrecht,  E. Alguire,  B. Austin,  
 S. A. Baeppler,  G. J. O. Beran,  Y. A. Bernard,  E. Berquist,  
 K. Brandhorst,  K. B. Bravaya,  S. T. Brown,  D. Casanova,  C.-M. Chang,  
 Y. Chen,  S. H. Chien,  K. D. Closser,  D. L. Crittenden,  M. Diedenhofen,  
 R. A. DiStasio Jr.,  H. Do,  A. D. Dutoi,  R. G. Edgar,  P.-T. Fang,  
 S. Fatehi,  Q. Feng,  L. Fusti-Molnar,  A. Ghysels,  
 A. Golubeva-Zadorozhnaya,  J. Gomes,  A. Gunina,  M. W. D. Hanson-Heine,  
 P. H. P. Harbach,  A. W. Hauser,  E. G. Hohenstein,  Z. C. Holden,  K. Hui,  
 T.-C. Jagau,  H. Ji,  B. Kaduk,  K. Khistyaev,  Jaehoon Kim,  Jihan Kim,  
 R. A. King,  P. Klunzinger,  D. Kosenkov,  T. Kowalczyk,  C. M. Krauter,  
 K. U. Lao,  A. Laurent,  K. V. Lawler,  S. Lehtola,  S. V. Levchenko,  
 C. Y. Lin,  Y.-S. Lin,  F. Liu,  E. Livshits,  R. C. Lochan,  A. Luenser,  
 P. Manohar,  S. F. Manzer,  S.-P. Mao,  N. Mardirossian,  A. V. Marenich,  
 L. A. Martinez-Martinez,  S. A. Maurer,  N. J. Mayhall,  K. Nanda,  
 C. M. Oana,  R. Olivares-Amaya,  D. P. O'Neill,  J. A. Parkhill,  
 T. M. Perrine,  R. Peverati,  P. A. Pieniazek,  F. Plasser,  A. Prociuk,  
 D. R. Rehn,  E. Rosta,  N. J. Russ,  N. Sergueev,  S. M. Sharada,  
 S. Sharma,  D. W. Small,  A. Sodt,  T. Stauch,  T. Stein,  D. Stuck,  
 Y.-C. Su,  A. J. W. Thom,  T. Tsuchimochi,  L. Vogt,  O. Vydrov,  T. Wang,  
 M. A. Watson,  J. Wenzel,  A. White,  C. F. Williams,  V. Vanovschi,  
 S. Yeganeh,  S. R. Yost,  Z.-Q. You,  I. Y. Zhang,  X. Zhang,  Y. Zhao,  
 B. R. Brooks,  G. K. L. Chan,  D. M. Chipman,  C. J. Cramer,  
 W. A. Goddard III,  M. S. Gordon,  W. J. Hehre,  A. Klamt,  
 H. F. Schaefer III,  M. W. Schmidt,  C. D. Sherrill,  D. G. Truhlar,  
 A. Warshel,  X. Xu,  A. Aspuru-Guzik,  R. Baer,  A. T. Bell,  N. A. Besley,  
 J.-D. Chai,  A. Dreuw,  B. D. Dunietz,  T. R. Furlani,  S. R. Gwaltney,  
 C.-P. Hsu,  Y. Jung,  J. Kong,  D. S. Lambrecht,  W. Liang,  C. Ochsenfeld,  
 V. A. Rassolov,  L. V. Slipchenko,  J. E. Subotnik,  T. Van Voorhis,  
 J. M. Herbert,  A. I. Krylov,  P. M. W. Gill,  M. Head-Gordon

 Contributors to earlier versions of Q-Chem not listed above: 
 R. D. Adamson,  J. Baker,  E. F. C. Byrd,  A. K. Chakraborty,  C.-L. Cheng,  
 H. Dachsel,  R. J. Doerksen,  G. Hawkins,  A. Heyden,  S. Hirata,  
 G. Kedziora,  F. J. Keil,  C. Kelley,  P. P. Korambath,  W. Kurlancheek,  
 A. M. Lee,  M. S. Lee,  D. Liotard,  I. Lotan,  P. E. Maslen,  N. Nair,  
 D. Neuhauser,  R. Olson,  B. Peters,  J. Ritchie,  N. E. Schultz,  
 N. Shenvi,  A. C. Simmonett,  K. S. Thanthiriwatte,  Q. Wu,  W. Zhang

 Please cite Q-Chem as follows:
 Y. Shao et al., Mol. Phys. 113, 184-215 (2015)
 DOI: 10.1080/00268976.2014.952696

 Q-Chem 4.3.0 for Intel X86 Linux

 Parts of Q-Chem use Armadillo 5.200.1 (Boston Tea Smuggler).
 http://arma.sourceforge.net/

 Q-Chem begins on Wed Mar 15 21:36:59 2017  

Host: 
0

     Scratch files written to /scratch/qchem/qchem25100//
 Nov1815 1189b_ 19540  19532 5443   
 Parallel job on  1  processors
Processing $rem in /mnt/software/qchem/config/preferences.
 MEM_TOTAL  2000 

Checking the input file for inconsistencies... 	...done.

--------------------------------------------------------------
User input:
--------------------------------------------------------------

$comment
job3 - cvs-adc(2) calculation
$end

$molecule
read
$end

$rem
mem_total 3000
mem_static 1500
sym_ignore true
scf_guess read
method cvs-adc(2)
basis 6-31G*
ee_singlets 20
cc_rest_occ 5                  !only excitations from the lowest N orbitals
unrestricted  true
max_scf_cycles 200
$end
--------------------------------------------------------------
 ----------------------------------------------------------------
             Standard Nuclear Orientation (Angstroms)
    I     Atom           X                Y                Z
 ----------------------------------------------------------------
    1      C      -0.4418880000     3.0125350000    -0.2135200000
    2      F       0.5838760000     2.3805730000    -0.0252010000
    3      F      -1.1130980000     3.2860760000     0.7457920000
    4      F      -1.3134660000     0.7262290000     0.6304610000
    5      F      -1.1157970000     2.5851480000    -1.2210740000
 ----------------------------------------------------------------
 Nuclear Repulsion Energy =   191.6571030898 hartrees
 There are       21 alpha and       21 beta electrons
 Requested basis set is 6-31G(d)
 There are 20 shells and 75 basis functions

 Total QAlloc Memory Limit   3000 MB
 Mega-Array Size      1467 MB
 MEM_STATIC part      1500 MB

                       Distance Matrix (Angstroms)
             C (  1)   F (  2)   F (  3)   F (  4)
   F (  2)  1.219439
   F (  3)  1.202342  2.072218
   F (  4)  2.588271  2.601279  2.570266
   F (  5)  1.285293  2.088265  2.088030  2.631128
 
 tim1(1): 
  0.000000000000000E+000
 tim1(2): 
  0.000000000000000E+000
 A cutoff of  1.0D-11 yielded    197 shell pairs
 There are      2954 function pairs
 
 -------------------------------------------------------
 OpenMP Integral Computing Module                       
 Release: version 1.0, May 2013, Q-Chem Inc. Pittsburgh 
 -------------------------------------------------------
 Integral Job Info:
 Integral job number is                      11
 Integral operator is                         1
 short-range coefficients                     0
 long-range coefficients              100000000
 Omega coefficients                           0
 if combine SR and LR in K                    0
 Integral screening is                        0
 Integral computing path is                   2
 max size of driver memory is            800000
 size of driver memory is                593474
 size of scratch memory is              2260544
 max col of scratch BK array               1296
 max len of scratch array in speh3          155
 max len of scratch index in speh4           18
 max int batch size is                      520
 min int batch size is                       52
 fixed nKL is                                52
 max L of basis functions is                  2
 order of int derivative is                   0
 number of shells is                         20
 number of basis is                          75
 number of cartesian basis is                75
 number of contracted shell pairs           197
 number of primitive shell pairs           1011
 maxK2 (contraction) of shell pair           36
 max number of K2 of shell pair               1
 max number of CS2 of shell pair             32
 max number of PS2 of shell pair            192
 mem total for path MDJ                   21832
 -------------------------------------------------------
 Smallest overlap matrix eigenvalue = 1.81E-03

 Scale SEOQF with 1.000000e+00/1.000000e-01/1.000000e+00

 Standard Electronic Orientation quadrupole field applied
 Nucleus-field energy     =     0.0000000103 hartrees
 Guess MOs from SCF MO coefficient file
 Reading MOs from coefficient file
 Reading MOs from coefficient file
 An unrestricted Hartree-Fock SCF calculation will be
 performed using Pulay DIIS extrapolation
 SCF converges when DIIS error is below 1.0E-08
 using 8 threads for integral computing 
 ---------------------------------------
  Cycle       Energy         DIIS Error
 ---------------------------------------
    1    -435.3347534574      6.24E-06
    2    -435.3347534872      3.53E-06
    3    -435.3347534992      1.03E-06
    4    -435.3347535085      6.88E-07
    5    -435.3347535155      4.25E-07
    6    -435.3347535189      1.81E-07
    7    -435.3347535193      4.66E-08
    8    -435.3347535194      2.26E-08
    9    -435.3347535194      1.15E-08
   10    -435.3347535194      7.60E-09 Convergence criterion met
 ---------------------------------------
 <S^2> = 0.0000
 SCF time:  CPU 10.56 s  wall 2.65 s
 SCF   energy in the final basis set = -435.3347535194
 Total energy in the final basis set = -435.3347535194
================================================================================
|                                                                              |
|                                 A D C  M A N                                 |
|                                                                              |
 ------------------------------------------------------------------------------ 
|                                                                              |
| Components:                                                                  |
|                                                                              |
| - libvmm - 1.2-release                                                       |
|   Authors:                                                                   |
|   Evgeny Epifanovsky, Ilya Kaliman                                           |
|                                                                              |
| - libtensor - 2.4-trunk                                                      |
|   Authors:                                                                   |
|   Evgeny Epifanovsky, Michael Wormit, Dmitry Zuev, Sam Manzer                |
|                                                                              |
| - libwfa - 1.1-beta                                                          |
|   Authors:                                                                   |
|   Felix Plasser, Stefanie Baeppler, Benjamin Thomitzni, Michael Wormit       |
|                                                                              |
| - libadc - 1.0-beta                                                          |
|   Authors:                                                                   |
|   Michael Wormit, Philipp H. P. Harbach, Caroline Krauter, Dirk Rehn,        |
|   Matthias Schneider, Jan Wenzel                                             |
|                                                                              |
| - adcman - 2.4-beta                                                          |
|   Authors:                                                                   |
|   Michael Wormit, Philipp H. P. Harbach, Caroline Krauter, Dirk Rehn,        |
|   Jan Wenzel, Andreas Dreuw                                                  |
|                                                                              |
| Authors of earlier versions of ADCMAN:                                       |
| Andreas Dreuw, Jan Hendrik Starcke, Dirk Rehn, Michael Wormit                |
|                                                                              |
================================================================================

 
 Alpha MOs, Unrestricted
 -- Occupied --                  
-26.548 -26.540 -26.510 -25.956 -11.743  -1.958  -1.861  -1.808
  1 A     2 A     3 A     4 A     5 A     6 A     7 A     8 A                  
 -1.216  -1.118  -1.029  -1.018  -0.967  -0.863  -0.850  -0.832
  9 A    10 A    11 A    12 A    13 A    14 A    15 A    16 A                  
 -0.808  -0.802  -0.325  -0.324  -0.318
 17 A    18 A    19 A    20 A    21 A                                          
 -- Virtual --                   
 -0.089   0.325   0.355   0.369   0.538   0.578   0.624   0.722
 22 A    23 A    24 A    25 A    26 A    27 A    28 A    29 A                  
  1.192   1.200   1.224   1.278   1.281   1.385   1.472   1.489
 30 A    31 A    32 A    33 A    34 A    35 A    36 A    37 A                  
  1.492   1.510   1.524   1.532   1.634   1.776   1.781   1.860
 38 A    39 A    40 A    41 A    42 A    43 A    44 A    45 A                  
  1.870   1.934   1.962   1.965   1.992   2.034   2.045   2.099
 46 A    47 A    48 A    49 A    50 A    51 A    52 A    53 A                  
  2.215   2.231   2.310   2.317   2.417   2.417   2.432   2.437
 54 A    55 A    56 A    57 A    58 A    59 A    60 A    61 A                  
  2.690   2.723   2.815   2.944   3.077   3.117   3.354   3.379
 62 A    63 A    64 A    65 A    66 A    67 A    68 A    69 A                  
  3.507   4.191   4.473   4.650   4.782   6.442
 70 A    71 A    72 A    73 A    74 A    75 A                                  
 
 Beta MOs, Unrestricted
 -- Occupied --                  
-26.548 -26.540 -26.510 -25.956 -11.743  -1.958  -1.861  -1.808
  1 A     2 A     3 A     4 A     5 A     6 A     7 A     8 A                  
 -1.216  -1.118  -1.029  -1.018  -0.967  -0.863  -0.850  -0.832
  9 A    10 A    11 A    12 A    13 A    14 A    15 A    16 A                  
 -0.808  -0.802  -0.325  -0.324  -0.318
 17 A    18 A    19 A    20 A    21 A                                          
 -- Virtual --                   
 -0.089   0.325   0.355   0.369   0.538   0.578   0.624   0.722
 22 A    23 A    24 A    25 A    26 A    27 A    28 A    29 A                  
  1.192   1.200   1.224   1.278   1.281   1.385   1.472   1.489
 30 A    31 A    32 A    33 A    34 A    35 A    36 A    37 A                  
  1.492   1.510   1.524   1.532   1.634   1.776   1.781   1.860
 38 A    39 A    40 A    41 A    42 A    43 A    44 A    45 A                  
  1.870   1.934   1.962   1.965   1.992   2.034   2.045   2.099
 46 A    47 A    48 A    49 A    50 A    51 A    52 A    53 A                  
  2.215   2.231   2.310   2.317   2.417   2.417   2.432   2.437
 54 A    55 A    56 A    57 A    58 A    59 A    60 A    61 A                  
  2.690   2.723   2.815   2.944   3.077   3.117   3.354   3.379
 62 A    63 A    64 A    65 A    66 A    67 A    68 A    69 A                  
  3.507   4.191   4.473   4.650   4.782   6.442
 70 A    71 A    72 A    73 A    74 A    75 A                                  
 

--------------------------------------------------------------------------------
                                   HF Summary                                   
--------------------------------------------------------------------------------
  Energy:                                                 -435.3347535194 a.u.
  Dip. moment [a.u.]:                  [ -56.812691,  183.017310,    1.063101]
  Total dipole [Debye]:                                             487.088836
  <r^2> [a.u.]:                        [ 172.027720,  944.178468,   97.640853]
  Total <r^2> [a.u.]:                                              1213.847042
--------------------------------------------------------------------------------

--------------------------------------------------------------------------------
                                 MP(2) Summary                                  
--------------------------------------------------------------------------------
  Energy contribution:                                      -0.8163446564 a.u.
  Total energy:                                           -436.1510981758 a.u.
  Dip. moment [a.u.]:                  [ -56.608832,  183.546247,    0.888838]
  Total dipole [Debye]:                                             488.217751
  <r^2> [a.u.]:                        [ 171.304705,  948.982708,   97.417740]
  Total <r^2> [a.u.]:                                              1217.705153
--------------------------------------------------------------------------------
  Starting Davidson ... 
--------------------------------------------------------------------------------
   It NVec Conv  Avg. Norm  Max. Norm  Conv. states           Remark
--------------------------------------------------------------------------------
        20    0  2.070e-01  1.064e+00 10.9405 n n n n n n n n Guess.
    1   40    0  5.794e-02  7.660e-01 10.7703 n n n n n n n n 
    2   60    0  5.330e-02  7.955e-01 10.7690 n n n n n n n n 
    3   80    0  4.150e-02  6.974e-01 10.7690 n n n n n n n n 
    4  100    0  4.500e-02  7.881e-01 10.7690 n n n n n n n n 
    5   40    0  4.216e-02  7.335e-01 10.7690 n n n n n n n n Subspace collapsed.
    6   60    0  3.975e-02  6.917e-01 10.7690 n n n n n n n n 
    7   80    0  4.056e-02  7.168e-01 10.7690 n n n n n n n n 
    8  100    2  3.898e-02  6.919e-01 10.7690 y y n n n n n n 
    9   40    6  3.733e-02  6.640e-01 10.7690 y y n y n y y y Subspace collapsed.
   10   60    7  3.450e-02  6.127e-01 10.7690 y y y y n y y y 
   11   80    8  3.252e-02  5.753e-01 10.7690 y y y y n y y y 
   12  100   12  2.910e-02  5.136e-01 10.7690 y y y y y y y y 
   13   40   14  2.765e-02  4.884e-01 10.7690 y y y y y y y y Subspace collapsed.
   14   60   14  2.661e-02  4.674e-01 10.7690 y y y y y y y y 
   15   80   14  2.598e-02  4.558e-01 10.7690 y y y y y y y y 
   16  100   14  2.468e-02  4.334e-01 10.7690 y y y y y y y y 
   17   38   15  2.422e-02  4.259e-01 10.7690 y y y y y y y y Subspace collapsed.
   18   56   15  2.393e-02  4.239e-01 10.7690 y y y y y y y y 
   19   57   15  2.392e-02  4.238e-01 10.7690 y y y y y y y y 
   20   58   15  2.387e-02  4.227e-01 10.7690 y y y y y y y y 
   21   60   15  2.385e-02  4.227e-01 10.7690 y y y y y y y y 
   22   62   15  2.359e-02  4.219e-01 10.7690 y y y y y y y y 
   23   62   15  2.359e-02  4.219e-01 10.7690 y y y y y y y y 
   24   82   15  2.330e-02  4.202e-01 10.7690 y y y y y y y y 
   25   95   15  2.283e-02  4.171e-01 10.7690 y y y y y y y y 
   26  100   15  2.256e-02  4.132e-01 10.7690 y y y y y y y y 
   27   32   15  2.209e-02  4.047e-01 10.7690 y y y y y y y y Subspace collapsed.
   28   44   15  2.121e-02  3.979e-01 10.7690 y y y y y y y y 
   29   55   15  2.437e-02  3.960e-01 10.7690 y y y y y y y y 
   30   66   15  1.985e-02  3.672e-01 10.7690 y y y y y y y y 
   31   68   15  1.967e-02  3.663e-01 10.7690 y y y y y y y y 
   32   70   15  1.964e-02  3.671e-01 10.7690 y y y y y y y y 
   33   70   15  1.964e-02  3.671e-01 10.7690 y y y y y y y y 
   34   71   15  1.960e-02  3.668e-01 10.7690 y y y y y y y y 
   35   71   15  1.960e-02  3.668e-01 10.7690 y y y y y y y y 
   36   71   15  1.960e-02  3.668e-01 10.7690 y y y y y y y y 
   37   91   16  4.428e-02  8.101e-01 10.7690 y y y y y y y y 
   38   97   16  3.945e-02  7.116e-01 10.7690 y y y y y y y y 
   39  100   16  3.908e-02  7.074e-01 10.7690 y y y y y y y y 
   40   27   16  3.825e-02  6.956e-01 10.7690 y y y y y y y y Subspace collapsed.
   41   34   16  3.625e-02  6.694e-01 10.7690 y y y y y y y y 
   42   34   16  3.625e-02  6.694e-01 10.7690 y y y y y y y y 
   43   38   16  3.596e-02  6.634e-01 10.7690 y y y y y y y y 
   44   44   16  2.692e-02  4.944e-01 10.7690 y y y y y y y y 
   45   50   16  1.321e-02  2.000e-01 10.7690 y y y y y y y y 
   46   56   16  8.152e-03  1.457e-01 10.7690 y y y y y y y y 
   47   63   16  6.356e-03  1.213e-01 10.7690 y y y y y y y y 
   48   63   16  6.356e-03  1.213e-01 10.7690 y y y y y y y y 
   49   63   16  6.356e-03  1.213e-01 10.7690 y y y y y y y y 
   50   83   16  4.717e-03  9.062e-02 10.7690 y y y y y y y y 
   51   83   16  4.717e-03  9.062e-02 10.7690 y y y y y y y y 
   52   85   16  4.588e-03  8.803e-02 10.7690 y y y y y y y y 
   53   86   16  4.582e-03  8.800e-02 10.7690 y y y y y y y y 
   54   87   16  4.583e-03  8.805e-02 10.7690 y y y y y y y y 
   55   88   16  4.519e-03  8.672e-02 10.7690 y y y y y y y y 
   56   91   16  4.432e-03  8.498e-02 10.7690 y y y y y y y y 
   57   95   14  4.166e-03  7.943e-02 10.7690 y y y y y y y y 
   58   99    0  3.951e-03  7.505e-02 10.7690 n n n n n n n n 
   59  100    0  4.003e-03  7.443e-02 10.7690 n n n n n n n n 
--------------------------------------------------------------------------------
  Davidson Summary: 
 ------------------------------------------------------------
  State  0: excitation energy =  10.7690 a.u.   (not converged)
  State  1: excitation energy =  10.8340 a.u.   (not converged)
  State  2: excitation energy =  11.1379 a.u.   (not converged)
  State  3: excitation energy =  11.2043 a.u.   (not converged)
  State  4: excitation energy =  11.2149 a.u.   (not converged)
  State  5: excitation energy =  11.2215 a.u.   (not converged)
  State  6: excitation energy =  11.2765 a.u.   (not converged)
  State  7: excitation energy =  11.2912 a.u.   (not converged)
  State  8: excitation energy =  11.4714 a.u.   (not converged)
  State  9: excitation energy =  11.5281 a.u.   (not converged)
  State 10: excitation energy =  11.5293 a.u.   (not converged)
  State 11: excitation energy =  11.5347 a.u.   (not converged)
  State 12: excitation energy =  11.5466 a.u.   (not converged)
  State 13: excitation energy =  11.5571 a.u.   (not converged)
  State 14: excitation energy =  11.7007 a.u.   (not converged)
  State 15: excitation energy =  11.7216 a.u.   (not converged)
  State 16: excitation energy =  11.8824 a.u.   (not converged)
  State 17: excitation energy =  11.8841 a.u.   (not converged)
  State 18: excitation energy =  11.8888 a.u.   (not converged)
  State 19: excitation energy =  11.8889 a.u.   (not converged)
 ------------------------------------------------------------


--------------------------------------------------------------------------------
                             Excited State Summary
--------------------------------------------------------------------------------

  Excited state  1 (A)                                         [not converged]
  ----------------------------------------------------------------------------
  Term symbol:  2 (-) A                                     R^2 =  1.12073e-04

  Total energy:                                           -425.3821354454 a.u.
  Excitation energy:                                             293.038379 eV


  V1^2 = 0.9527, V2^2 = 0.0473

  Important amplitudes:
     core i     occ j      vir a      vir b          v   
    ------------------------------------------------------
     5 (A) A              22 (A) A                 0.6482
     5 (A) B              22 (A) B                -0.6482
    ------------------------------------------------------
  ----------------------------------------------------------------------------


  Excited state  2 (A)                                         [not converged]
  ----------------------------------------------------------------------------
  Term symbol:  3 (-) A                                     R^2 =  3.85377e-05

  Total energy:                                           -425.3170631333 a.u.
  Excitation energy:                                             294.809087 eV


  V1^2 = 0.9464, V2^2 = 0.0536

  Important amplitudes:
     core i     occ j      vir a      vir b          v   
    ------------------------------------------------------
     5 (A) A              22 (A) A                 0.6615
     5 (A) B              22 (A) B                 0.6615
    ------------------------------------------------------
  ----------------------------------------------------------------------------


  Excited state  3 (A)                                         [not converged]
  ----------------------------------------------------------------------------
  Term symbol:  4 (-) A                                     R^2 =  1.36402e-05

  Total energy:                                           -425.0131617539 a.u.
  Excitation energy:                                             303.078664 eV


  V1^2 = 0.9474, V2^2 = 0.0526

  Important amplitudes:
     core i     occ j      vir a      vir b          v   
    ------------------------------------------------------
     5 (A) A              23 (A) A                 0.5268
     5 (A) B              23 (A) B                -0.5268
    ------------------------------------------------------
  ----------------------------------------------------------------------------


  Excited state  4 (A)                                         [not converged]
  ----------------------------------------------------------------------------
  Term symbol:  5 (-) A                                     R^2 =  2.32777e-05

  Total energy:                                           -424.9467513713 a.u.
  Excitation energy:                                             304.885782 eV


  V1^2 = 0.9388, V2^2 = 0.0612

  Important amplitudes:
     core i     occ j      vir a      vir b          v   
    ------------------------------------------------------
     5 (A) A              25 (A) A                -0.4311
     5 (A) B              25 (A) B                 0.4311
    ------------------------------------------------------
  ----------------------------------------------------------------------------


  Excited state  5 (A)                                         [not converged]
  ----------------------------------------------------------------------------
  Term symbol:  6 (-) A                                     R^2 =  1.49947e-05

  Total energy:                                           -424.9362402827 a.u.
  Excitation energy:                                             305.171804 eV


  V1^2 = 0.9387, V2^2 = 0.0613

  Important amplitudes:
     core i     occ j      vir a      vir b          v   
    ------------------------------------------------------
     5 (A) A              23 (A) A                -0.5661
     5 (A) B              23 (A) B                -0.5661
    ------------------------------------------------------
  ----------------------------------------------------------------------------


  Excited state  6 (A)                                         [not converged]
  ----------------------------------------------------------------------------
  Term symbol:  7 (-) A                                     R^2 =  7.52193e-06

  Total energy:                                           -424.9296040264 a.u.
  Excitation energy:                                             305.352385 eV


  V1^2 = 0.9418, V2^2 = 0.0582

  Important amplitudes:
     core i     occ j      vir a      vir b          v   
    ------------------------------------------------------
     5 (A) B              28 (A) B                 0.3898
     5 (A) A              28 (A) A                -0.3898
    ------------------------------------------------------
  ----------------------------------------------------------------------------


  Excited state  7 (A)                                         [not converged]
  ----------------------------------------------------------------------------
  Term symbol:  8 (-) A                                     R^2 =  1.55899e-05

  Total energy:                                           -424.8746074101 a.u.
  Excitation energy:                                             306.848919 eV


  V1^2 = 0.9267, V2^2 = 0.0733

  Important amplitudes:
     core i     occ j      vir a      vir b          v   
    ------------------------------------------------------
     5 (A) A              25 (A) A                 0.4985
     5 (A) B              25 (A) B                 0.4985
    ------------------------------------------------------
  ----------------------------------------------------------------------------


  Excited state  8 (A)                                         [not converged]
  ----------------------------------------------------------------------------
  Term symbol:  9 (-) A                                     R^2 =  3.17249e-05

  Total energy:                                           -424.8599094327 a.u.
  Excitation energy:                                             307.248872 eV


  V1^2 = 0.9322, V2^2 = 0.0678

  Important amplitudes:
     core i     occ j      vir a      vir b          v   
    ------------------------------------------------------
     5 (A) B              24 (A) B                -0.4410
     5 (A) A              24 (A) A                -0.4410
    ------------------------------------------------------
  ----------------------------------------------------------------------------


  Excited state  9 (A)                                         [not converged]
  ----------------------------------------------------------------------------
  Term symbol:  10 (-) A                                    R^2 =  1.82630e-04

  Total energy:                                           -424.6796778019 a.u.
  Excitation energy:                                             312.153224 eV


  V1^2 = 0.9189, V2^2 = 0.0811

  Important amplitudes:
     core i     occ j      vir a      vir b          v   
    ------------------------------------------------------
     5 (A) A              26 (A) A                -0.5794
     5 (A) B              26 (A) B                 0.5794
    ------------------------------------------------------
  ----------------------------------------------------------------------------


  Excited state 10 (A)                                         [not converged]
  ----------------------------------------------------------------------------
  Term symbol:  11 (-) A                                    R^2 =  8.73293e-06

  Total energy:                                           -424.6230273409 a.u.
  Excitation energy:                                             313.694761 eV


  V1^2 = 0.8944, V2^2 = 0.1056

  Important amplitudes:
     core i     occ j      vir a      vir b          v   
    ------------------------------------------------------
     5 (A) A              27 (A) A                 0.4680
     5 (A) B              27 (A) B                -0.4680
    ------------------------------------------------------
  ----------------------------------------------------------------------------


  Excited state 11 (A)                                         [not converged]
  ----------------------------------------------------------------------------
  Term symbol:  12 (-) A                                    R^2 =  2.43928e-04

  Total energy:                                           -424.6217722126 a.u.
  Excitation energy:                                             313.728915 eV


  V1^2 = 0.9174, V2^2 = 0.0826

  Important amplitudes:
     core i     occ j      vir a      vir b          v   
    ------------------------------------------------------
     5 (A) A              26 (A) A                -0.6301
     5 (A) B              26 (A) B                -0.6301
    ------------------------------------------------------
  ----------------------------------------------------------------------------


  Excited state 12 (A)                                         [not converged]
  ----------------------------------------------------------------------------
  Term symbol:  13 (-) A                                    R^2 =  1.43723e-05

  Total energy:                                           -424.6164060469 a.u.
  Excitation energy:                                             313.874936 eV


  V1^2 = 0.8950, V2^2 = 0.1050

  Important amplitudes:
     core i     occ j      vir a      vir b          v   
    ------------------------------------------------------
     5 (A) B              28 (A) B                 0.4786
     5 (A) A              28 (A) A                -0.4786
    ------------------------------------------------------
  ----------------------------------------------------------------------------


  Excited state 13 (A)                                         [not converged]
  ----------------------------------------------------------------------------
  Term symbol:  14 (-) A                                    R^2 =  1.05777e-05

  Total energy:                                           -424.6044822957 a.u.
  Excitation energy:                                             314.199397 eV


  V1^2 = 0.8985, V2^2 = 0.1015

  Important amplitudes:
     core i     occ j      vir a      vir b          v   
    ------------------------------------------------------
     5 (A) B              27 (A) B                -0.5408
     5 (A) A              27 (A) A                -0.5408
    ------------------------------------------------------
  ----------------------------------------------------------------------------


  Excited state 14 (A)                                         [not converged]
  ----------------------------------------------------------------------------
  Term symbol:  15 (-) A                                    R^2 =  1.54989e-05

  Total energy:                                           -424.5939842961 a.u.
  Excitation energy:                                             314.485063 eV


  V1^2 = 0.9005, V2^2 = 0.0995

  Important amplitudes:
     core i     occ j      vir a      vir b          v   
    ------------------------------------------------------
     5 (A) B              28 (A) B                 0.5432
     5 (A) A              28 (A) A                 0.5432
    ------------------------------------------------------
  ----------------------------------------------------------------------------


  Excited state 15 (A)                                         [not converged]
  ----------------------------------------------------------------------------
  Term symbol:  16 (-) A                                    R^2 =  8.29957e-06

  Total energy:                                           -424.4504094916 a.u.
  Excitation energy:                                             318.391932 eV


  V1^2 = 0.8802, V2^2 = 0.1198

  Important amplitudes:
     core i     occ j      vir a      vir b          v   
    ------------------------------------------------------
     5 (A) B              29 (A) B                 0.6067
     5 (A) A              29 (A) A                -0.6067
    ------------------------------------------------------
  ----------------------------------------------------------------------------


  Excited state 16 (A)                                         [not converged]
  ----------------------------------------------------------------------------
  Term symbol:  17 (-) A                                    R^2 =  4.06929e-05

  Total energy:                                           -424.4295425609 a.u.
  Excitation energy:                                             318.959750 eV


  V1^2 = 0.8820, V2^2 = 0.1180

  Important amplitudes:
     core i     occ j      vir a      vir b          v   
    ------------------------------------------------------
     5 (A) A              29 (A) A                -0.6332
     5 (A) B              29 (A) B                -0.6332
    ------------------------------------------------------
  ----------------------------------------------------------------------------


  Excited state 17 (A)                                         [not converged]
  ----------------------------------------------------------------------------
  Term symbol:  18 (-) A                                    R^2 =  2.11455e-02

  Total energy:                                           -424.2687044570 a.u.
  Excitation energy:                                             323.336377 eV


  V1^2 = 0.0019, V2^2 = 0.9981

  Important amplitudes:
     core i     occ j      vir a      vir b          v   
    ------------------------------------------------------
     5 (A) A   21 (A) B   22 (A) A   22 (A) B      0.5216
     5 (A) B   21 (A) A   22 (A) A   22 (A) B     -0.4762
    ------------------------------------------------------
  ----------------------------------------------------------------------------


  Excited state 18 (A)                                         [not converged]
  ----------------------------------------------------------------------------
  Term symbol:  19 (-) A                                    R^2 =  7.44331e-02

  Total energy:                                           -424.2670101995 a.u.
  Excitation energy:                                             323.382480 eV


  V1^2 = 0.0016, V2^2 = 0.9984

  Important amplitudes:
     core i     occ j      vir a      vir b          v   
    ------------------------------------------------------
     5 (A) B   21 (A) A   22 (A) A   22 (A) B     -0.5093
     5 (A) A   21 (A) B   22 (A) A   22 (A) B     -0.4649
    ------------------------------------------------------
  ----------------------------------------------------------------------------


  Excited state 19 (A)                                         [not converged]
  ----------------------------------------------------------------------------
  Term symbol:  20 (-) A                                    R^2 =  2.03272e-02

  Total energy:                                           -424.2622502366 a.u.
  Excitation energy:                                             323.512005 eV


  V1^2 = 0.0000, V2^2 = 0.9999

  Important amplitudes:
     core i     occ j      vir a      vir b          v   
    ------------------------------------------------------
     5 (A) B   20 (A) A   22 (A) A   22 (A) B     -0.6314
     5 (A) A   20 (A) B   22 (A) A   22 (A) B     -0.2591
    ------------------------------------------------------
  ----------------------------------------------------------------------------


  Excited state 20 (A)                                         [not converged]
  ----------------------------------------------------------------------------
  Term symbol:  21 (-) A                                    R^2 =  3.03504e-03

  Total energy:                                           -424.2621581175 a.u.
  Excitation energy:                                             323.514512 eV


  V1^2 = 0.0000, V2^2 = 1.0000

  Important amplitudes:
     core i     occ j      vir a      vir b          v   
    ------------------------------------------------------
     5 (A) B   19 (A) A   22 (A) A   22 (A) B      0.5615
     5 (A) A   19 (A) B   22 (A) A   22 (A) B     -0.4031
    ------------------------------------------------------
  ----------------------------------------------------------------------------


--------------------------------------------------------------------------------
  Time of ADC calculation:  CPU 3534.12 s  wall 2184.99 s
================================================================================
 
 --------------------------------------------------------------
 
                    Orbital Energies (a.u.)
 --------------------------------------------------------------
 
 Alpha MOs
 -- Occupied --
-26.548 -26.540 -26.510 -25.956 -11.743  -1.958  -1.861  -1.808
 -1.216  -1.118  -1.029  -1.018  -0.967  -0.863  -0.850  -0.832
 -0.808  -0.802  -0.325  -0.324  -0.318
 -- Virtual --
 -0.089   0.325   0.355   0.369   0.538   0.578   0.624   0.722
  1.192   1.200   1.224   1.278   1.281   1.385   1.472   1.489
  1.492   1.510   1.524   1.532   1.634   1.776   1.781   1.860
  1.870   1.934   1.962   1.965   1.992   2.034   2.045   2.099
  2.215   2.231   2.310   2.317   2.417   2.417   2.432   2.437
  2.690   2.723   2.815   2.944   3.077   3.117   3.354   3.379
  3.507   4.191   4.473   4.650   4.782   6.442
 
 Beta MOs
 -- Occupied --
-26.548 -26.540 -26.510 -25.956 -11.743  -1.958  -1.861  -1.808
 -1.216  -1.118  -1.029  -1.018  -0.967  -0.863  -0.850  -0.832
 -0.808  -0.802  -0.325  -0.324  -0.318
 -- Virtual --
 -0.089   0.325   0.355   0.369   0.538   0.578   0.624   0.722
  1.192   1.200   1.224   1.278   1.281   1.385   1.472   1.489
  1.492   1.510   1.524   1.532   1.634   1.776   1.781   1.860
  1.870   1.934   1.962   1.965   1.992   2.034   2.045   2.099
  2.215   2.231   2.310   2.317   2.417   2.417   2.432   2.437
  2.690   2.723   2.815   2.944   3.077   3.117   3.354   3.379
  3.507   4.191   4.473   4.650   4.782   6.442
 --------------------------------------------------------------
 
          Ground-State Mulliken Net Atomic Charges

     Atom                 Charge (a.u.)    Spin (a.u.)
  --------------------------------------------------------
      1 C                     1.168949       0.000000
      2 F                    -0.078779       0.000000
      3 F                    -0.053441       0.000000
      4 F                    -0.881662       0.000000
      5 F                    -0.155067       0.000000
  --------------------------------------------------------
  Sum of atomic charges =     0.000000
  Sum of spin   charges =     0.000000

 -----------------------------------------------------------------
                    Cartesian Multipole Moments
 -----------------------------------------------------------------
    Charge (ESU x 10^10)
                 0.0000
    Dipole Moment (Debye)
         X       3.7767      Y       9.7450      Z      -3.2368
       Tot      10.9410
    Quadrupole Moments (Debye-Ang)
        XX     -29.0605     XY      -1.0024     YY      15.0710
        XZ       3.4002     YZ      -4.0784     ZZ     -24.3070
    Octopole Moments (Debye-Ang^2)
       XXX      57.8695    XXY     -55.7029    XYY       4.0806
       YYY     -32.1102    XXZ      -4.4029    XYZ       2.2898
       YYZ      -9.1828    XZZ      18.0143    YZZ     -53.4000
       ZZZ      -1.4970
    Hexadecapole Moments (Debye-Ang^3)
      XXXX    -160.9090   XXXY     105.6336   XXYY    -166.7207
      XYYY      56.8466   YYYY    -454.7705   XXXZ      10.9062
      XXYZ       1.9946   XYYZ       2.4032   YYYZ     -16.5909
      XXZZ     -40.1211   XYZZ      34.0986   YYZZ    -156.8147
      XZZZ       6.4610   YZZZ      12.7140   ZZZZ     -81.8265
 -----------------------------------------------------------------
Archival summary:
1\1\tp-linux1\SP\HF\6-31G*\41\thomas\WedMar1522:13:292017WedMar1522:13:292017\0\\#,HF,6-31G*,\\0,1\F\C,1,1.20234\F,2,1.21944,1,117.663\F,2,1.28529,1,114.105,3,-135.78,0\F,1,2.57027,2,77.3575,3,66.6868,0\\HF=-435.334754\\@

 Total job time:  2189.67s(wall), 3548.35s(cpu) 
 Wed Mar 15 22:13:29 2017

        *************************************************************
        *                                                           *
        *  Thank you very much for using Q-Chem.  Have a nice day.  *
        *                                                           *
        *************************************************************


0 sent ACK to 0 
now end server 0 ... 
cleanup process ... done
