
Running Job 1 of 2 ddtraj3t5.inp
qchem ddtraj3t5.inp_24584.0 /scratch/qchem/qchem24584/ 1
/mnt/software/qchem/bin/mpi/mpirun_qchem -machinefile /mnt/software/qchem/bin/mpi/machines -np 1 /mnt/software/qchem/exe/qcprog.exe ddtraj3t5.inp_24584.0 /scratch/qchem/qchem24584/

Process 0 of 1 is on tp-linux1 - thread support 0
initial socket setup ...start
initial socket setup ...done 
now start server 0 ... 

cmd = ssh tp-linux1 /mnt/software/qchem/bin/get_hostid 1212996191 > /scratch/qchem/qchem24584/lic.dat
                  Welcome to Q-Chem
     A Quantum Leap Into The Future Of Chemistry


 Q-Chem 4.3, Q-Chem, Inc., Pleasanton, CA (2015)

 Y. Shao,  Z. Gan,  E. Epifanovsky,  A. T. B. Gilbert,  M. Wormit,  
 J. Kussmann,  A. W. Lange,  A. Behn,  J. Deng,  X. Feng,  D. Ghosh,  
 M. Goldey,  P. R. Horn,  L. D. Jacobson,  I. Kaliman,  R. Z. Khaliullin,  
 T. Kus,  A. Landau,  J. Liu,  E. I. Proynov,  Y. M. Rhee,  R. M. Richard,  
 M. A. Rohrdanz,  R. P. Steele,  E. J. Sundstrom,  H. L. Woodcock III,  
 P. M. Zimmerman,  D. Zuev,  B. Albrecht,  E. Alguire,  B. Austin,  
 S. A. Baeppler,  G. J. O. Beran,  Y. A. Bernard,  E. Berquist,  
 K. Brandhorst,  K. B. Bravaya,  S. T. Brown,  D. Casanova,  C.-M. Chang,  
 Y. Chen,  S. H. Chien,  K. D. Closser,  D. L. Crittenden,  M. Diedenhofen,  
 R. A. DiStasio Jr.,  H. Do,  A. D. Dutoi,  R. G. Edgar,  P.-T. Fang,  
 S. Fatehi,  Q. Feng,  L. Fusti-Molnar,  A. Ghysels,  
 A. Golubeva-Zadorozhnaya,  J. Gomes,  A. Gunina,  M. W. D. Hanson-Heine,  
 P. H. P. Harbach,  A. W. Hauser,  E. G. Hohenstein,  Z. C. Holden,  K. Hui,  
 T.-C. Jagau,  H. Ji,  B. Kaduk,  K. Khistyaev,  Jaehoon Kim,  Jihan Kim,  
 R. A. King,  P. Klunzinger,  D. Kosenkov,  T. Kowalczyk,  C. M. Krauter,  
 K. U. Lao,  A. Laurent,  K. V. Lawler,  S. Lehtola,  S. V. Levchenko,  
 C. Y. Lin,  Y.-S. Lin,  F. Liu,  E. Livshits,  R. C. Lochan,  A. Luenser,  
 P. Manohar,  S. F. Manzer,  S.-P. Mao,  N. Mardirossian,  A. V. Marenich,  
 L. A. Martinez-Martinez,  S. A. Maurer,  N. J. Mayhall,  K. Nanda,  
 C. M. Oana,  R. Olivares-Amaya,  D. P. O'Neill,  J. A. Parkhill,  
 T. M. Perrine,  R. Peverati,  P. A. Pieniazek,  F. Plasser,  A. Prociuk,  
 D. R. Rehn,  E. Rosta,  N. J. Russ,  N. Sergueev,  S. M. Sharada,  
 S. Sharma,  D. W. Small,  A. Sodt,  T. Stauch,  T. Stein,  D. Stuck,  
 Y.-C. Su,  A. J. W. Thom,  T. Tsuchimochi,  L. Vogt,  O. Vydrov,  T. Wang,  
 M. A. Watson,  J. Wenzel,  A. White,  C. F. Williams,  V. Vanovschi,  
 S. Yeganeh,  S. R. Yost,  Z.-Q. You,  I. Y. Zhang,  X. Zhang,  Y. Zhao,  
 B. R. Brooks,  G. K. L. Chan,  D. M. Chipman,  C. J. Cramer,  
 W. A. Goddard III,  M. S. Gordon,  W. J. Hehre,  A. Klamt,  
 H. F. Schaefer III,  M. W. Schmidt,  C. D. Sherrill,  D. G. Truhlar,  
 A. Warshel,  X. Xu,  A. Aspuru-Guzik,  R. Baer,  A. T. Bell,  N. A. Besley,  
 J.-D. Chai,  A. Dreuw,  B. D. Dunietz,  T. R. Furlani,  S. R. Gwaltney,  
 C.-P. Hsu,  Y. Jung,  J. Kong,  D. S. Lambrecht,  W. Liang,  C. Ochsenfeld,  
 V. A. Rassolov,  L. V. Slipchenko,  J. E. Subotnik,  T. Van Voorhis,  
 J. M. Herbert,  A. I. Krylov,  P. M. W. Gill,  M. Head-Gordon

 Contributors to earlier versions of Q-Chem not listed above: 
 R. D. Adamson,  J. Baker,  E. F. C. Byrd,  A. K. Chakraborty,  C.-L. Cheng,  
 H. Dachsel,  R. J. Doerksen,  G. Hawkins,  A. Heyden,  S. Hirata,  
 G. Kedziora,  F. J. Keil,  C. Kelley,  P. P. Korambath,  W. Kurlancheek,  
 A. M. Lee,  M. S. Lee,  D. Liotard,  I. Lotan,  P. E. Maslen,  N. Nair,  
 D. Neuhauser,  R. Olson,  B. Peters,  J. Ritchie,  N. E. Schultz,  
 N. Shenvi,  A. C. Simmonett,  K. S. Thanthiriwatte,  Q. Wu,  W. Zhang

 Please cite Q-Chem as follows:
 Y. Shao et al., Mol. Phys. 113, 184-215 (2015)
 DOI: 10.1080/00268976.2014.952696

 Q-Chem 4.3.0 for Intel X86 Linux

 Parts of Q-Chem use Armadillo 5.200.1 (Boston Tea Smuggler).
 http://arma.sourceforge.net/

 Q-Chem begins on Sun Mar 19 02:38:03 2017  

Host: 
0

     Scratch files written to /scratch/qchem/qchem24584//
 Nov1815 1189b_ 19540  19532 5443   
 Parallel job on  1  processors
Processing $rem in /mnt/software/qchem/config/preferences.
 MEM_TOTAL  2000 

Checking the input file for inconsistencies... 	...done.

--------------------------------------------------------------
User input:
--------------------------------------------------------------
$comment
XAS calculation for the 2b valence excited for water using cvs-adc(2)-x + 6-311+G* basis set
job 1 - determination of HF orbitals
$end

$molecule
0 1
6  -0.616502  2.41841  -0.059584
9  0.583496  2.344444  0.002581
9  -1.139555  3.28493  0.791548
9  -1.14776  1.168408  0.439411
9  -1.134322  2.552479  -1.199973
$end

$rem
jobtype      sp
sym_ignore true
exchange     hf
basis        6-31G*
unrestricted true
$end

--------------------------------------------------------------
 ----------------------------------------------------------------
             Standard Nuclear Orientation (Angstroms)
    I     Atom           X                Y                Z
 ----------------------------------------------------------------
    1      C      -0.6165020000     2.4184100000    -0.0595840000
    2      F       0.5834960000     2.3444440000     0.0025810000
    3      F      -1.1395550000     3.2849300000     0.7915480000
    4      F      -1.1477600000     1.1684080000     0.4394110000
    5      F      -1.1343220000     2.5524790000    -1.1999730000
 ----------------------------------------------------------------
 Nuclear Repulsion Energy =   208.5835404439 hartrees
 There are       21 alpha and       21 beta electrons
 Requested basis set is 6-31G(d)
 There are 20 shells and 75 basis functions

 Total QAlloc Memory Limit   2000 MB
 Mega-Array Size        61 MB
 MEM_STATIC part        62 MB

                       Distance Matrix (Angstroms)
             C (  1)   F (  2)   F (  3)   F (  4)
   F (  2)  1.203881
   F (  3)  1.322447  2.115629
   F (  4)  1.446975  2.138020  2.145631
   F (  5)  1.259603  2.107205  2.121949  2.145557
 
 tim1(1): 
  0.000000000000000E+000
 tim1(2): 
  0.000000000000000E+000
 A cutoff of  1.0D-08 yielded    204 shell pairs
 There are      2979 function pairs
 
 -------------------------------------------------------
 OpenMP Integral Computing Module                       
 Release: version 1.0, May 2013, Q-Chem Inc. Pittsburgh 
 -------------------------------------------------------
 Integral Job Info:
 Integral job number is                      11
 Integral operator is                         1
 short-range coefficients                     0
 long-range coefficients              100000000
 Omega coefficients                           0
 if combine SR and LR in K                    0
 Integral screening is                        0
 Integral computing path is                   2
 max size of driver memory is            800000
 size of driver memory is                593474
 size of scratch memory is              2260544
 max col of scratch BK array               1296
 max len of scratch array in speh3          155
 max len of scratch index in speh4           18
 max int batch size is                      520
 min int batch size is                       52
 fixed nKL is                                52
 max L of basis functions is                  2
 order of int derivative is                   0
 number of shells is                         20
 number of basis is                          75
 number of cartesian basis is                75
 number of contracted shell pairs           204
 number of primitive shell pairs            985
 maxK2 (contraction) of shell pair           36
 max number of K2 of shell pair               1
 max number of CS2 of shell pair             28
 max number of PS2 of shell pair            180
 mem total for path MDJ                   21832
 -------------------------------------------------------
 Smallest overlap matrix eigenvalue = 1.73E-03

 Scale SEOQF with 1.000000e+00/1.000000e-01/1.000000e+00

 Standard Electronic Orientation quadrupole field applied
 Nucleus-field energy     =     0.0000000107 hartrees
 Guess from superposition of atomic densities
 Warning:  Energy on first SCF cycle will be non-variational
 An unrestricted Hartree-Fock SCF calculation will be
 performed using Pulay DIIS extrapolation
 SCF converges when DIIS error is below 1.0E-05
 using 8 threads for integral computing 
 ---------------------------------------
  Cycle       Energy         DIIS Error
 ---------------------------------------
    1    -436.6586268185      9.12E-02
    2    -435.4501154869      1.74E-02
    3    -435.5713923611      1.00E-02
    4    -435.6153825804      1.01E-03
    5    -435.6161413488      3.37E-04
    6    -435.6162513162      7.70E-05
    7    -435.6162572991      3.47E-05
    8    -435.6162582050      4.57E-06 Convergence criterion met
 ---------------------------------------
 <S^2> = 0.0000
 SCF time:  CPU 7.90 s  wall 1.98 s
 SCF   energy in the final basis set = -435.6162582050
 Total energy in the final basis set = -435.6162582050
 
 --------------------------------------------------------------
 
                    Orbital Energies (a.u.)
 --------------------------------------------------------------
 
 Alpha MOs
 -- Occupied --
-26.423 -26.397 -26.367 -26.309 -11.610  -1.847  -1.740  -1.680
 -1.590  -1.018  -0.920  -0.906  -0.887  -0.772  -0.759  -0.738
 -0.711  -0.686  -0.653  -0.638  -0.631
 -- Virtual --
  0.343   0.419   0.443   0.498   0.652   0.679   0.703   0.740
  1.261   1.286   1.298   1.301   1.316   1.423   1.553   1.567
  1.581   1.604   1.619   1.665   1.679   1.695   1.744   1.841
  1.891   2.053   2.073   2.080   2.118   2.133   2.146   2.242
  2.264   2.288   2.299   2.343   2.375   2.410   2.431   2.587
  2.777   2.926   3.079   3.158   3.196   3.342   3.445   3.468
  3.528   4.500   4.711   4.807   5.055   6.306
 
 Beta MOs
 -- Occupied --
-26.423 -26.397 -26.367 -26.309 -11.610  -1.847  -1.740  -1.680
 -1.590  -1.018  -0.920  -0.906  -0.887  -0.772  -0.759  -0.738
 -0.711  -0.686  -0.653  -0.638  -0.631
 -- Virtual --
  0.343   0.419   0.443   0.498   0.652   0.679   0.703   0.740
  1.261   1.286   1.298   1.301   1.316   1.423   1.553   1.567
  1.581   1.604   1.619   1.665   1.679   1.695   1.744   1.841
  1.891   2.053   2.073   2.080   2.118   2.133   2.146   2.242
  2.264   2.288   2.299   2.343   2.375   2.410   2.431   2.587
  2.777   2.926   3.079   3.158   3.196   3.342   3.445   3.468
  3.528   4.500   4.711   4.807   5.055   6.306
 --------------------------------------------------------------
 
          Ground-State Mulliken Net Atomic Charges

     Atom                 Charge (a.u.)    Spin (a.u.)
  --------------------------------------------------------
      1 C                     1.281544       0.000000
      2 F                    -0.207544       0.000000
      3 F                    -0.345313       0.000000
      4 F                    -0.451277       0.000000
      5 F                    -0.277410       0.000000
  --------------------------------------------------------
  Sum of atomic charges =     0.000000
  Sum of spin   charges =     0.000000

 -----------------------------------------------------------------
                    Cartesian Multipole Moments
 -----------------------------------------------------------------
    Charge (ESU x 10^10)
                 0.0000
    Dipole Moment (Debye)
         X       1.0411      Y       0.9127      Z      -0.7525
       Tot       1.5758
    Quadrupole Moments (Debye-Ang)
        XX     -25.7327     XY       1.5535     YY     -21.4203
        XZ       0.7299     YZ      -1.5918     ZZ     -24.7698
    Octopole Moments (Debye-Ang^2)
       XXX      52.0682    XXY     -59.4360    XYY      20.7650
       YYY    -164.2903    XXZ      -0.7960    XYZ       1.4692
       YYZ      -4.7593    XZZ      18.0200    YZZ     -58.4699
       ZZZ       0.3810
    Hexadecapole Moments (Debye-Ang^3)
      XXXX    -146.0558   XXXY     120.2796   XXYY    -177.4898
      XYYY     131.9607   YYYY    -869.0520   XXXZ       1.6313
      XXYZ      -1.3791   XYYZ       4.1561   YYYZ     -16.2560
      XXZZ     -38.1952   XYZZ      42.2517   YYZZ    -164.4564
      XZZZ       0.4183   YZZZ       1.6156   ZZZZ     -76.9163
 -----------------------------------------------------------------
Archival summary:
1\1\tp-linux1\SP\HF\6-31G*\41\thomas\SunMar1902:38:062017SunMar1902:38:062017\0\\#,HF,6-31G*,\\0,1\C\F,1,1.20388\F,1,1.2596,2,117.585\F,1,1.32245,2,113.657,3,131.333,0\F,1,1.44697,2,107.163,3,-117.411,0\\HF=-435.616258\\@

 Total job time:  2.32s(wall), 9.65s(cpu) 
 Sun Mar 19 02:38:06 2017

        *************************************************************
        *                                                           *
        *  Thank you very much for using Q-Chem.  Have a nice day.  *
        *                                                           *
        *************************************************************


0 sent ACK to 0 
now end server 0 ... 
cleanup process ... done

Running Job 2 of 2 ddtraj3t5.inp
qchem ddtraj3t5.inp_24584.1 /scratch/qchem/qchem24584/ 1
/mnt/software/qchem/bin/mpi/mpirun_qchem -machinefile /mnt/software/qchem/bin/mpi/machines -np 1 /mnt/software/qchem/exe/qcprog.exe ddtraj3t5.inp_24584.1 /scratch/qchem/qchem24584/

Process 0 of 1 is on tp-linux1 - thread support 0
initial socket setup ...start
initial socket setup ...done 
now start server 0 ... 

cmd = ssh tp-linux1 /mnt/software/qchem/bin/get_hostid 1843613430 > /scratch/qchem/qchem24584/lic.dat
                  Welcome to Q-Chem
     A Quantum Leap Into The Future Of Chemistry


 Q-Chem 4.3, Q-Chem, Inc., Pleasanton, CA (2015)

 Y. Shao,  Z. Gan,  E. Epifanovsky,  A. T. B. Gilbert,  M. Wormit,  
 J. Kussmann,  A. W. Lange,  A. Behn,  J. Deng,  X. Feng,  D. Ghosh,  
 M. Goldey,  P. R. Horn,  L. D. Jacobson,  I. Kaliman,  R. Z. Khaliullin,  
 T. Kus,  A. Landau,  J. Liu,  E. I. Proynov,  Y. M. Rhee,  R. M. Richard,  
 M. A. Rohrdanz,  R. P. Steele,  E. J. Sundstrom,  H. L. Woodcock III,  
 P. M. Zimmerman,  D. Zuev,  B. Albrecht,  E. Alguire,  B. Austin,  
 S. A. Baeppler,  G. J. O. Beran,  Y. A. Bernard,  E. Berquist,  
 K. Brandhorst,  K. B. Bravaya,  S. T. Brown,  D. Casanova,  C.-M. Chang,  
 Y. Chen,  S. H. Chien,  K. D. Closser,  D. L. Crittenden,  M. Diedenhofen,  
 R. A. DiStasio Jr.,  H. Do,  A. D. Dutoi,  R. G. Edgar,  P.-T. Fang,  
 S. Fatehi,  Q. Feng,  L. Fusti-Molnar,  A. Ghysels,  
 A. Golubeva-Zadorozhnaya,  J. Gomes,  A. Gunina,  M. W. D. Hanson-Heine,  
 P. H. P. Harbach,  A. W. Hauser,  E. G. Hohenstein,  Z. C. Holden,  K. Hui,  
 T.-C. Jagau,  H. Ji,  B. Kaduk,  K. Khistyaev,  Jaehoon Kim,  Jihan Kim,  
 R. A. King,  P. Klunzinger,  D. Kosenkov,  T. Kowalczyk,  C. M. Krauter,  
 K. U. Lao,  A. Laurent,  K. V. Lawler,  S. Lehtola,  S. V. Levchenko,  
 C. Y. Lin,  Y.-S. Lin,  F. Liu,  E. Livshits,  R. C. Lochan,  A. Luenser,  
 P. Manohar,  S. F. Manzer,  S.-P. Mao,  N. Mardirossian,  A. V. Marenich,  
 L. A. Martinez-Martinez,  S. A. Maurer,  N. J. Mayhall,  K. Nanda,  
 C. M. Oana,  R. Olivares-Amaya,  D. P. O'Neill,  J. A. Parkhill,  
 T. M. Perrine,  R. Peverati,  P. A. Pieniazek,  F. Plasser,  A. Prociuk,  
 D. R. Rehn,  E. Rosta,  N. J. Russ,  N. Sergueev,  S. M. Sharada,  
 S. Sharma,  D. W. Small,  A. Sodt,  T. Stauch,  T. Stein,  D. Stuck,  
 Y.-C. Su,  A. J. W. Thom,  T. Tsuchimochi,  L. Vogt,  O. Vydrov,  T. Wang,  
 M. A. Watson,  J. Wenzel,  A. White,  C. F. Williams,  V. Vanovschi,  
 S. Yeganeh,  S. R. Yost,  Z.-Q. You,  I. Y. Zhang,  X. Zhang,  Y. Zhao,  
 B. R. Brooks,  G. K. L. Chan,  D. M. Chipman,  C. J. Cramer,  
 W. A. Goddard III,  M. S. Gordon,  W. J. Hehre,  A. Klamt,  
 H. F. Schaefer III,  M. W. Schmidt,  C. D. Sherrill,  D. G. Truhlar,  
 A. Warshel,  X. Xu,  A. Aspuru-Guzik,  R. Baer,  A. T. Bell,  N. A. Besley,  
 J.-D. Chai,  A. Dreuw,  B. D. Dunietz,  T. R. Furlani,  S. R. Gwaltney,  
 C.-P. Hsu,  Y. Jung,  J. Kong,  D. S. Lambrecht,  W. Liang,  C. Ochsenfeld,  
 V. A. Rassolov,  L. V. Slipchenko,  J. E. Subotnik,  T. Van Voorhis,  
 J. M. Herbert,  A. I. Krylov,  P. M. W. Gill,  M. Head-Gordon

 Contributors to earlier versions of Q-Chem not listed above: 
 R. D. Adamson,  J. Baker,  E. F. C. Byrd,  A. K. Chakraborty,  C.-L. Cheng,  
 H. Dachsel,  R. J. Doerksen,  G. Hawkins,  A. Heyden,  S. Hirata,  
 G. Kedziora,  F. J. Keil,  C. Kelley,  P. P. Korambath,  W. Kurlancheek,  
 A. M. Lee,  M. S. Lee,  D. Liotard,  I. Lotan,  P. E. Maslen,  N. Nair,  
 D. Neuhauser,  R. Olson,  B. Peters,  J. Ritchie,  N. E. Schultz,  
 N. Shenvi,  A. C. Simmonett,  K. S. Thanthiriwatte,  Q. Wu,  W. Zhang

 Please cite Q-Chem as follows:
 Y. Shao et al., Mol. Phys. 113, 184-215 (2015)
 DOI: 10.1080/00268976.2014.952696

 Q-Chem 4.3.0 for Intel X86 Linux

 Parts of Q-Chem use Armadillo 5.200.1 (Boston Tea Smuggler).
 http://arma.sourceforge.net/

 Q-Chem begins on Sun Mar 19 02:38:08 2017  

Host: 
0

     Scratch files written to /scratch/qchem/qchem24584//
 Nov1815 1189b_ 19540  19532 5443   
 Parallel job on  1  processors
Processing $rem in /mnt/software/qchem/config/preferences.
 MEM_TOTAL  2000 

Checking the input file for inconsistencies... 	...done.

--------------------------------------------------------------
User input:
--------------------------------------------------------------

$comment
job3 - cvs-adc(2) calculation
$end

$molecule
read
$end

$rem
mem_total 3000
mem_static 1500
sym_ignore true
scf_guess read
method cvs-adc(2)
basis 6-31G*
ee_singlets 20
cc_rest_occ 5                  !only excitations from the lowest N orbitals
unrestricted  true
max_scf_cycles 200
$end
--------------------------------------------------------------
 ----------------------------------------------------------------
             Standard Nuclear Orientation (Angstroms)
    I     Atom           X                Y                Z
 ----------------------------------------------------------------
    1      C      -0.6165020000     2.4184100000    -0.0595840000
    2      F       0.5834960000     2.3444440000     0.0025810000
    3      F      -1.1395550000     3.2849300000     0.7915480000
    4      F      -1.1477600000     1.1684080000     0.4394110000
    5      F      -1.1343220000     2.5524790000    -1.1999730000
 ----------------------------------------------------------------
 Nuclear Repulsion Energy =   208.5835404439 hartrees
 There are       21 alpha and       21 beta electrons
 Requested basis set is 6-31G(d)
 There are 20 shells and 75 basis functions

 Total QAlloc Memory Limit   3000 MB
 Mega-Array Size      1467 MB
 MEM_STATIC part      1500 MB

                       Distance Matrix (Angstroms)
             C (  1)   F (  2)   F (  3)   F (  4)
   F (  2)  1.203881
   F (  3)  1.322447  2.115629
   F (  4)  1.446975  2.138020  2.145631
   F (  5)  1.259603  2.107205  2.121949  2.145557
 
 tim1(1): 
  0.000000000000000E+000
 tim1(2): 
  0.000000000000000E+000
 A cutoff of  1.0D-11 yielded    204 shell pairs
 There are      2979 function pairs
 
 -------------------------------------------------------
 OpenMP Integral Computing Module                       
 Release: version 1.0, May 2013, Q-Chem Inc. Pittsburgh 
 -------------------------------------------------------
 Integral Job Info:
 Integral job number is                      11
 Integral operator is                         1
 short-range coefficients                     0
 long-range coefficients              100000000
 Omega coefficients                           0
 if combine SR and LR in K                    0
 Integral screening is                        0
 Integral computing path is                   2
 max size of driver memory is            800000
 size of driver memory is                593474
 size of scratch memory is              2260544
 max col of scratch BK array               1296
 max len of scratch array in speh3          155
 max len of scratch index in speh4           18
 max int batch size is                      520
 min int batch size is                       52
 fixed nKL is                                52
 max L of basis functions is                  2
 order of int derivative is                   0
 number of shells is                         20
 number of basis is                          75
 number of cartesian basis is                75
 number of contracted shell pairs           204
 number of primitive shell pairs           1075
 maxK2 (contraction) of shell pair           36
 max number of K2 of shell pair               1
 max number of CS2 of shell pair             37
 max number of PS2 of shell pair            222
 mem total for path MDJ                   21832
 -------------------------------------------------------
 Smallest overlap matrix eigenvalue = 1.73E-03

 Scale SEOQF with 1.000000e+00/1.000000e-01/1.000000e+00

 Standard Electronic Orientation quadrupole field applied
 Nucleus-field energy     =     0.0000000107 hartrees
 Guess MOs from SCF MO coefficient file
 Reading MOs from coefficient file
 Reading MOs from coefficient file
 An unrestricted Hartree-Fock SCF calculation will be
 performed using Pulay DIIS extrapolation
 SCF converges when DIIS error is below 1.0E-08
 using 8 threads for integral computing 
 ---------------------------------------
  Cycle       Energy         DIIS Error
 ---------------------------------------
    1    -435.6162582430      1.22E-06
    2    -435.6162582443      5.42E-07
    3    -435.6162582446      2.98E-07
    4    -435.6162582447      2.65E-08
    5    -435.6162582447      9.55E-09 Convergence criterion met
 ---------------------------------------
 <S^2> = 0.0000
 SCF time:  CPU 4.06 s  wall 1.34 s
 SCF   energy in the final basis set = -435.6162582447
 Total energy in the final basis set = -435.6162582447
================================================================================
|                                                                              |
|                                 A D C  M A N                                 |
|                                                                              |
 ------------------------------------------------------------------------------ 
|                                                                              |
| Components:                                                                  |
|                                                                              |
| - libvmm - 1.2-release                                                       |
|   Authors:                                                                   |
|   Evgeny Epifanovsky, Ilya Kaliman                                           |
|                                                                              |
| - libtensor - 2.4-trunk                                                      |
|   Authors:                                                                   |
|   Evgeny Epifanovsky, Michael Wormit, Dmitry Zuev, Sam Manzer                |
|                                                                              |
| - libwfa - 1.1-beta                                                          |
|   Authors:                                                                   |
|   Felix Plasser, Stefanie Baeppler, Benjamin Thomitzni, Michael Wormit       |
|                                                                              |
| - libadc - 1.0-beta                                                          |
|   Authors:                                                                   |
|   Michael Wormit, Philipp H. P. Harbach, Caroline Krauter, Dirk Rehn,        |
|   Matthias Schneider, Jan Wenzel                                             |
|                                                                              |
| - adcman - 2.4-beta                                                          |
|   Authors:                                                                   |
|   Michael Wormit, Philipp H. P. Harbach, Caroline Krauter, Dirk Rehn,        |
|   Jan Wenzel, Andreas Dreuw                                                  |
|                                                                              |
| Authors of earlier versions of ADCMAN:                                       |
| Andreas Dreuw, Jan Hendrik Starcke, Dirk Rehn, Michael Wormit                |
|                                                                              |
================================================================================

 
 Alpha MOs, Unrestricted
 -- Occupied --                  
-26.423 -26.397 -26.367 -26.309 -11.610  -1.847  -1.740  -1.680
  1 A     2 A     3 A     4 A     5 A     6 A     7 A     8 A                  
 -1.590  -1.018  -0.920  -0.906  -0.887  -0.772  -0.759  -0.738
  9 A    10 A    11 A    12 A    13 A    14 A    15 A    16 A                  
 -0.711  -0.686  -0.653  -0.638  -0.631
 17 A    18 A    19 A    20 A    21 A                                          
 -- Virtual --                   
  0.343   0.419   0.443   0.498   0.652   0.679   0.703   0.740
 22 A    23 A    24 A    25 A    26 A    27 A    28 A    29 A                  
  1.261   1.286   1.298   1.301   1.316   1.423   1.553   1.567
 30 A    31 A    32 A    33 A    34 A    35 A    36 A    37 A                  
  1.581   1.604   1.619   1.665   1.679   1.695   1.744   1.841
 38 A    39 A    40 A    41 A    42 A    43 A    44 A    45 A                  
  1.891   2.053   2.073   2.080   2.118   2.133   2.146   2.242
 46 A    47 A    48 A    49 A    50 A    51 A    52 A    53 A                  
  2.264   2.288   2.299   2.343   2.375   2.410   2.431   2.587
 54 A    55 A    56 A    57 A    58 A    59 A    60 A    61 A                  
  2.777   2.926   3.079   3.158   3.196   3.342   3.445   3.468
 62 A    63 A    64 A    65 A    66 A    67 A    68 A    69 A                  
  3.528   4.500   4.711   4.807   5.055   6.306
 70 A    71 A    72 A    73 A    74 A    75 A                                  
 
 Beta MOs, Unrestricted
 -- Occupied --                  
-26.423 -26.397 -26.367 -26.309 -11.610  -1.847  -1.740  -1.680
  1 A     2 A     3 A     4 A     5 A     6 A     7 A     8 A                  
 -1.590  -1.018  -0.920  -0.906  -0.887  -0.772  -0.759  -0.738
  9 A    10 A    11 A    12 A    13 A    14 A    15 A    16 A                  
 -0.711  -0.686  -0.653  -0.638  -0.631
 17 A    18 A    19 A    20 A    21 A                                          
 -- Virtual --                   
  0.343   0.419   0.443   0.498   0.652   0.679   0.703   0.740
 22 A    23 A    24 A    25 A    26 A    27 A    28 A    29 A                  
  1.261   1.286   1.298   1.301   1.316   1.423   1.553   1.567
 30 A    31 A    32 A    33 A    34 A    35 A    36 A    37 A                  
  1.581   1.604   1.619   1.665   1.679   1.695   1.744   1.841
 38 A    39 A    40 A    41 A    42 A    43 A    44 A    45 A                  
  1.891   2.053   2.073   2.080   2.118   2.133   2.146   2.242
 46 A    47 A    48 A    49 A    50 A    51 A    52 A    53 A                  
  2.264   2.288   2.299   2.343   2.375   2.410   2.431   2.587
 54 A    55 A    56 A    57 A    58 A    59 A    60 A    61 A                  
  2.777   2.926   3.079   3.158   3.196   3.342   3.445   3.468
 62 A    63 A    64 A    65 A    66 A    67 A    68 A    69 A                  
  3.528   4.500   4.711   4.807   5.055   6.306
 70 A    71 A    72 A    73 A    74 A    75 A                                  
 

--------------------------------------------------------------------------------
                                   HF Summary                                   
--------------------------------------------------------------------------------
  Energy:                                                 -435.6162582447 a.u.
  Dip. moment [a.u.]:                  [ -55.669485,  186.086630,    0.191342]
  Total dipole [Debye]:                                             493.697049
  <r^2> [a.u.]:                        [ 163.646498,  917.976089,   91.113556]
  Total <r^2> [a.u.]:                                              1172.736142
--------------------------------------------------------------------------------

--------------------------------------------------------------------------------
                                 MP(2) Summary                                  
--------------------------------------------------------------------------------
  Energy contribution:                                      -0.7999803160 a.u.
  Total energy:                                           -436.4162385607 a.u.
  Dip. moment [a.u.]:                  [ -55.629356,  186.126550,    0.160630]
  Total dipole [Debye]:                                             493.764971
  <r^2> [a.u.]:                        [ 163.484729,  918.235204,   91.048192]
  Total <r^2> [a.u.]:                                              1172.768124
--------------------------------------------------------------------------------
  Starting Davidson ... 
--------------------------------------------------------------------------------
   It NVec Conv  Avg. Norm  Max. Norm  Conv. states           Remark
--------------------------------------------------------------------------------
        20    0  2.112e-01  1.045e+00 11.1742 n n n n n n n n Guess.
    1   40    0  6.733e-02  8.731e-01 10.9915 n n n n n n n n 
    2   60    0  1.248e-02  1.566e-01 10.9898 n n n n n n n n 
    3   80    0  2.984e-03  3.357e-02 10.9897 n n n n n n n n 
    4  100    0  1.967e-03  2.219e-02 10.9897 n n n n n n n n 
    5   40    0  1.356e-03  1.824e-02 10.9897 n n n n n n n n Subspace collapsed.
    6   60    0  1.888e-03  2.684e-02 10.9897 n n n n n n n n 
    7   80    0  1.209e-03  1.708e-02 10.9897 n n n n n n n n 
    8  100    1  1.070e-03  1.508e-02 10.9897 y n n n n n n n 
    9   40    6  5.107e-04  7.256e-03 10.9897 y y y y y n y n Subspace collapsed.
   10   60    8  5.350e-04  7.335e-03 10.9897 y y y y y y y y 
   11   80    9  5.518e-04  7.043e-03 10.9897 y y y y y y y y 
   12  100   15  8.615e-04  1.418e-02 10.9897 y y y y y y y y 
   13   40   16  4.304e-04  6.074e-03 10.9897 y y y y y y y y Subspace collapsed.
   14   60   16  4.802e-04  6.968e-03 10.9897 y y y y y y y y 
   15   80   16  4.016e-04  5.972e-03 10.9897 y y y y y y y y 
   16  100   16  4.792e-04  7.427e-03 10.9897 y y y y y y y y 
   17   40   16  2.897e-04  4.679e-03 10.9897 y y y y y y y y Subspace collapsed.
   18   59   16  4.347e-04  7.306e-03 10.9897 y y y y y y y y 
   19   75   16  4.210e-04  6.924e-03 10.9897 y y y y y y y y 
   20   89   16  6.280e-04  1.138e-02 10.9897 y y y y y y y y 
   21  100   16  1.312e-03  2.567e-02 10.9897 y y y y y y y y 
   22   32   16  5.847e-04  1.118e-02 10.9897 y y y y y y y y Subspace collapsed.
   23   44   16  6.079e-04  1.156e-02 10.9897 y y y y y y y y 
   24   56   16  5.918e-04  1.152e-02 10.9897 y y y y y y y y 
   25   60   16  5.975e-04  1.164e-02 10.9897 y y y y y y y y 
   26   60   16  5.975e-04  1.164e-02 10.9897 y y y y y y y y 
   27   80   16  4.059e-04  7.449e-03 10.9897 y y y y y y y y 
   28   80   16  4.059e-04  7.449e-03 10.9897 y y y y y y y y 
   29   80   16  4.059e-04  7.449e-03 10.9897 y y y y y y y y 
   30  100   16  3.637e-04  5.776e-03 10.9897 y y y y y y y y 
   31   20   16  3.637e-04  5.776e-03 10.9897 y y y y y y y y Subspace collapsed.
   32   20   16  3.637e-04  5.776e-03 10.9897 y y y y y y y y 
   33   21   16  3.576e-04  5.774e-03 10.9897 y y y y y y y y 
   34   27   16  2.480e-04  4.437e-03 10.9897 y y y y y y y y 
   35   27   16  2.480e-04  4.437e-03 10.9897 y y y y y y y y 
   36   27   16  2.480e-04  4.437e-03 10.9897 y y y y y y y y 
   37   47   16  3.182e-04  5.984e-03 10.9897 y y y y y y y y 
   38   52   16  4.891e-04  9.493e-03 10.9897 y y y y y y y y 
   39   52   16  4.891e-04  9.493e-03 10.9897 y y y y y y y y 
   40   61   16  6.686e-04  1.311e-02 10.9897 y y y y y y y y 
   41   65   16  7.750e-04  1.528e-02 10.9897 y y y y y y y y 
   42   69   16  4.551e-04  8.570e-03 10.9897 y y y y y y y y 
   43   73   16  4.182e-04  7.990e-03 10.9897 y y y y y y y y 
   44   77   16  5.369e-04  1.031e-02 10.9897 y y y y y y y y 
   45   81   16  4.874e-04  9.420e-03 10.9897 y y y y y y y y 
   46   85   16  2.361e-04  4.475e-03 10.9897 y y y y y y y y 
   47   89   16  1.112e-04  2.049e-03 10.9897 y y y y y y y y 
   48   93   16  5.001e-05  8.100e-04 10.9897 y y y y y y y y 
   49   97   16  3.055e-05  4.339e-04 10.9897 y y y y y y y y 
   50  100   16  1.558e-05  2.219e-04 10.9897 y y y y y y y y 
   51   24   16  7.921e-06  1.123e-04 10.9897 y y y y y y y y Subspace collapsed.
   52   28   16  4.976e-06  7.008e-05 10.9897 y y y y y y y y 
   53   32   16  3.577e-06  5.035e-05 10.9897 y y y y y y y y 
   54   36   17  2.730e-06  3.901e-05 10.9897 y y y y y y y y 
   55   40   17  1.949e-06  2.834e-05 10.9897 y y y y y y y y 
   56   44   17  1.552e-06  2.319e-05 10.9897 y y y y y y y y 
   57   48   17  9.517e-07  1.430e-05 10.9897 y y y y y y y y 
   58   52   17  5.097e-07  7.694e-06 10.9897 y y y y y y y y 
   59   56   18  2.581e-07  3.871e-06 10.9897 y y y y y y y y 
--------------------------------------------------------------------------------
  Davidson Summary: 
 ------------------------------------------------------------
  State  0: excitation energy =  10.9897 a.u.   (converged)
  State  1: excitation energy =  11.0676 a.u.   (converged)
  State  2: excitation energy =  11.0904 a.u.   (converged)
  State  3: excitation energy =  11.1583 a.u.   (converged)
  State  4: excitation energy =  11.1731 a.u.   (converged)
  State  5: excitation energy =  11.2097 a.u.   (converged)
  State  6: excitation energy =  11.2455 a.u.   (converged)
  State  7: excitation energy =  11.2834 a.u.   (converged)
  State  8: excitation energy =  11.4805 a.u.   (converged)
  State  9: excitation energy =  11.5166 a.u.   (converged)
  State 10: excitation energy =  11.5228 a.u.   (converged)
  State 11: excitation energy =  11.5360 a.u.   (converged)
  State 12: excitation energy =  11.5379 a.u.   (converged)
  State 13: excitation energy =  11.5532 a.u.   (converged)
  State 14: excitation energy =  11.5751 a.u.   (converged)
  State 15: excitation energy =  11.5893 a.u.   (converged)
  State 16: excitation energy =  12.1362 a.u.   (converged)
  State 17: excitation energy =  12.1376 a.u.   (converged)
  State 18: excitation energy =  12.1420 a.u.   (not converged)
  State 19: excitation energy =  12.1451 a.u.   (not converged)
 ------------------------------------------------------------


--------------------------------------------------------------------------------
                             Excited State Summary
--------------------------------------------------------------------------------

  Excited state  1 (A)                                             [converged]
  ----------------------------------------------------------------------------
  Term symbol:  2 (-) A                                     R^2 =  1.49509e-13

  Total energy:                                           -425.4265240474 a.u.
  Excitation energy:                                             299.045341 eV

  Osc. strength:                                                      0.000000
  Trans. dip. moment [a.u.]:           [  -0.000000,    0.000000,    0.000000]
  <i|r^2|0> [a.u.]:                    [   0.000000,    0.000000,   -0.000000]

  V1^2 = 0.9565, V2^2 = 0.0435

  Important amplitudes:
     core i     occ j      vir a      vir b          v   
    ------------------------------------------------------
     5 (A) A              22 (A) A                 0.6291
     5 (A) B              22 (A) B                -0.6291
    ------------------------------------------------------
  ----------------------------------------------------------------------------


  Excited state  2 (A)                                             [converged]
  ----------------------------------------------------------------------------
  Term symbol:  3 (-) A                                     R^2 =  9.33750e-14

  Total energy:                                           -425.3486152069 a.u.
  Excitation energy:                                             301.165348 eV

  Osc. strength:                                                      0.120250
  Trans. dip. moment [a.u.]:           [  -0.031927,   -0.119461,    0.031737]
  <i|r^2|0> [a.u.]:                    [   0.079841,   -1.091152,   -0.001111]

  V1^2 = 0.9504, V2^2 = 0.0496

  Important amplitudes:
     core i     occ j      vir a      vir b          v   
    ------------------------------------------------------
     5 (A) B              22 (A) B                -0.6468
     5 (A) A              22 (A) A                -0.6468
    ------------------------------------------------------
  ----------------------------------------------------------------------------


  Excited state  3 (A)                                             [converged]
  ----------------------------------------------------------------------------
  Term symbol:  4 (-) A                                     R^2 =  1.43925e-13

  Total energy:                                           -425.3258731907 a.u.
  Excitation energy:                                             301.784190 eV

  Osc. strength:                                                      0.000000
  Trans. dip. moment [a.u.]:           [  -0.000000,   -0.000000,   -0.000000]
  <i|r^2|0> [a.u.]:                    [   0.000000,   -0.000000,    0.000000]

  V1^2 = 0.9548, V2^2 = 0.0452

  Important amplitudes:
     core i     occ j      vir a      vir b          v   
    ------------------------------------------------------
     5 (A) B              24 (A) B                 0.5659
     5 (A) A              24 (A) A                -0.5659
    ------------------------------------------------------
  ----------------------------------------------------------------------------


  Excited state  4 (A)                                             [converged]
  ----------------------------------------------------------------------------
  Term symbol:  5 (-) A                                     R^2 =  1.98400e-13

  Total energy:                                           -425.2579440251 a.u.
  Excitation energy:                                             303.632636 eV

  Osc. strength:                                                      0.000000
  Trans. dip. moment [a.u.]:           [  -0.000000,   -0.000000,    0.000000]
  <i|r^2|0> [a.u.]:                    [   0.000000,    0.000000,    0.000000]

  V1^2 = 0.9462, V2^2 = 0.0538

  Important amplitudes:
     core i     occ j      vir a      vir b          v   
    ------------------------------------------------------
     5 (A) A              23 (A) A                 0.3901
     5 (A) B              23 (A) B                -0.3901
    ------------------------------------------------------
  ----------------------------------------------------------------------------


  Excited state  5 (A)                                             [converged]
  ----------------------------------------------------------------------------
  Term symbol:  6 (-) A                                     R^2 =  1.19053e-13

  Total energy:                                           -425.2430908175 a.u.
  Excitation energy:                                             304.036813 eV

  Osc. strength:                                                      0.118665
  Trans. dip. moment [a.u.]:           [   0.043015,   -0.043231,   -0.110506]
  <i|r^2|0> [a.u.]:                    [  -0.109064,   -0.398482,    0.016847]

  V1^2 = 0.9480, V2^2 = 0.0520

  Important amplitudes:
     core i     occ j      vir a      vir b          v   
    ------------------------------------------------------
     5 (A) B              24 (A) B                -0.5997
     5 (A) A              24 (A) A                -0.5997
    ------------------------------------------------------
  ----------------------------------------------------------------------------


  Excited state  6 (A)                                             [converged]
  ----------------------------------------------------------------------------
  Term symbol:  7 (-) A                                     R^2 =  1.42593e-13

  Total energy:                                           -425.2065142787 a.u.
  Excitation energy:                                             305.032111 eV

  Osc. strength:                                                      0.000000
  Trans. dip. moment [a.u.]:           [   0.000000,   -0.000000,    0.000000]
  <i|r^2|0> [a.u.]:                    [  -0.000000,   -0.000000,   -0.000000]

  V1^2 = 0.9417, V2^2 = 0.0583

  Important amplitudes:
     core i     occ j      vir a      vir b          v   
    ------------------------------------------------------
     5 (A) A              29 (A) A                 0.4265
     5 (A) B              29 (A) B                -0.4265
    ------------------------------------------------------
  ----------------------------------------------------------------------------


  Excited state  7 (A)                                             [converged]
  ----------------------------------------------------------------------------
  Term symbol:  8 (-) A                                     R^2 =  7.64744e-14

  Total energy:                                           -425.1707768064 a.u.
  Excitation energy:                                             306.004577 eV

  Osc. strength:                                                      0.069929
  Trans. dip. moment [a.u.]:           [  -0.079783,    0.011719,   -0.053151]
  <i|r^2|0> [a.u.]:                    [   0.206742,    0.126213,    0.023350]

  V1^2 = 0.9345, V2^2 = 0.0655

  Important amplitudes:
     core i     occ j      vir a      vir b          v   
    ------------------------------------------------------
     5 (A) B              25 (A) B                -0.4225
     5 (A) A              25 (A) A                -0.4225
    ------------------------------------------------------
  ----------------------------------------------------------------------------


  Excited state  8 (A)                                             [converged]
  ----------------------------------------------------------------------------
  Term symbol:  9 (-) A                                     R^2 =  9.00723e-14

  Total energy:                                           -425.1328239015 a.u.
  Excitation energy:                                             307.037328 eV

  Osc. strength:                                                      0.050480
  Trans. dip. moment [a.u.]:           [  -0.078414,    0.013985,   -0.019141]
  <i|r^2|0> [a.u.]:                    [   0.175179,    0.108156,   -0.015106]

  V1^2 = 0.9258, V2^2 = 0.0742

  Important amplitudes:
     core i     occ j      vir a      vir b          v   
    ------------------------------------------------------
     5 (A) B              23 (A) B                -0.4549
     5 (A) A              23 (A) A                -0.4549
    ------------------------------------------------------
  ----------------------------------------------------------------------------


  Excited state  9 (A)                                             [converged]
  ----------------------------------------------------------------------------
  Term symbol:  10 (-) A                                    R^2 =  2.28873e-13

  Total energy:                                           -424.9357392760 a.u.
  Excitation energy:                                             312.400273 eV

  Osc. strength:                                                      0.000000
  Trans. dip. moment [a.u.]:           [   0.000000,    0.000000,    0.000000]
  <i|r^2|0> [a.u.]:                    [  -0.000000,    0.000000,    0.000000]

  V1^2 = 0.9023, V2^2 = 0.0977

  Important amplitudes:
     core i     occ j      vir a      vir b          v   
    ------------------------------------------------------
     5 (A) A              26 (A) A                -0.3411
     5 (A) B              26 (A) B                 0.3411
    ------------------------------------------------------
  ----------------------------------------------------------------------------


  Excited state 10 (A)                                             [converged]
  ----------------------------------------------------------------------------
  Term symbol:  11 (-) A                                    R^2 =  2.31375e-13

  Total energy:                                           -424.8995969266 a.u.
  Excitation energy:                                             313.383757 eV

  Osc. strength:                                                      0.021446
  Trans. dip. moment [a.u.]:           [  -0.025248,   -0.040682,    0.022380]
  <i|r^2|0> [a.u.]:                    [   0.044088,   -0.389414,   -0.022271]

  V1^2 = 0.9056, V2^2 = 0.0944

  Important amplitudes:
     core i     occ j      vir a      vir b          v   
    ------------------------------------------------------
     5 (A) B              26 (A) B                 0.4601
     5 (A) A              26 (A) A                 0.4601
    ------------------------------------------------------
  ----------------------------------------------------------------------------


  Excited state 11 (A)                                             [converged]
  ----------------------------------------------------------------------------
  Term symbol:  12 (-) A                                    R^2 =  2.96411e-13

  Total energy:                                           -424.8934556721 a.u.
  Excitation energy:                                             313.550869 eV

  Osc. strength:                                                      0.000000
  Trans. dip. moment [a.u.]:           [  -0.000000,   -0.000000,    0.000000]
  <i|r^2|0> [a.u.]:                    [   0.000000,   -0.000000,   -0.000000]

  V1^2 = 0.8907, V2^2 = 0.1093

  Important amplitudes:
     core i     occ j      vir a      vir b          v   
    ------------------------------------------------------
     5 (A) A              26 (A) A                 0.4592
     5 (A) B              26 (A) B                -0.4592
    ------------------------------------------------------
  ----------------------------------------------------------------------------


  Excited state 12 (A)                                             [converged]
  ----------------------------------------------------------------------------
  Term symbol:  13 (-) A                                    R^2 =  1.44915e-13

  Total energy:                                           -424.8802085873 a.u.
  Excitation energy:                                             313.911340 eV

  Osc. strength:                                                      0.000000
  Trans. dip. moment [a.u.]:           [   0.000000,    0.000000,   -0.000000]
  <i|r^2|0> [a.u.]:                    [  -0.000000,    0.000000,    0.000000]

  V1^2 = 0.8889, V2^2 = 0.1111

  Important amplitudes:
     core i     occ j      vir a      vir b          v   
    ------------------------------------------------------
     5 (A) A              25 (A) A                 0.4086
     5 (A) B              25 (A) B                -0.4086
    ------------------------------------------------------
  ----------------------------------------------------------------------------


  Excited state 13 (A)                                             [converged]
  ----------------------------------------------------------------------------
  Term symbol:  14 (-) A                                    R^2 =  1.72216e-13

  Total energy:                                           -424.8783809028 a.u.
  Excitation energy:                                             313.961074 eV

  Osc. strength:                                                      0.025915
  Trans. dip. moment [a.u.]:           [   0.016046,   -0.035554,   -0.042983]
  <i|r^2|0> [a.u.]:                    [  -0.033434,   -0.319540,    0.014762]

  V1^2 = 0.8936, V2^2 = 0.1064

  Important amplitudes:
     core i     occ j      vir a      vir b          v   
    ------------------------------------------------------
     5 (A) B              27 (A) B                 0.4151
     5 (A) A              27 (A) A                 0.4151
    ------------------------------------------------------
  ----------------------------------------------------------------------------


  Excited state 14 (A)                                             [converged]
  ----------------------------------------------------------------------------
  Term symbol:  15 (-) A                                    R^2 =  2.70349e-13

  Total energy:                                           -424.8630144071 a.u.
  Excitation energy:                                             314.379218 eV

  Osc. strength:                                                      0.031446
  Trans. dip. moment [a.u.]:           [   0.053769,   -0.015263,    0.030963]
  <i|r^2|0> [a.u.]:                    [  -0.122049,   -0.132904,    0.000100]

  V1^2 = 0.8942, V2^2 = 0.1058

  Important amplitudes:
     core i     occ j      vir a      vir b          v   
    ------------------------------------------------------
     5 (A) B              29 (A) B                 0.4951
     5 (A) A              29 (A) A                 0.4951
    ------------------------------------------------------
  ----------------------------------------------------------------------------


  Excited state 15 (A)                                             [converged]
  ----------------------------------------------------------------------------
  Term symbol:  16 (-) A                                    R^2 =  7.18807e-13

  Total energy:                                           -424.8411643820 a.u.
  Excitation energy:                                             314.973787 eV

  Osc. strength:                                                      0.000000
  Trans. dip. moment [a.u.]:           [   0.000000,   -0.000000,    0.000000]
  <i|r^2|0> [a.u.]:                    [  -0.000000,   -0.000000,    0.000000]

  V1^2 = 0.8875, V2^2 = 0.1125

  Important amplitudes:
     core i     occ j      vir a      vir b          v   
    ------------------------------------------------------
     5 (A) B              28 (A) B                -0.5099
     5 (A) A              28 (A) A                 0.5099
    ------------------------------------------------------
  ----------------------------------------------------------------------------


  Excited state 16 (A)                                             [converged]
  ----------------------------------------------------------------------------
  Term symbol:  17 (-) A                                    R^2 =  4.30495e-13

  Total energy:                                           -424.8269198865 a.u.
  Excitation energy:                                             315.361400 eV

  Osc. strength:                                                      0.008466
  Trans. dip. moment [a.u.]:           [   0.025427,    0.016213,   -0.013652]
  <i|r^2|0> [a.u.]:                    [  -0.071340,    0.134847,   -0.008552]

  V1^2 = 0.8904, V2^2 = 0.1096

  Important amplitudes:
     core i     occ j      vir a      vir b          v   
    ------------------------------------------------------
     5 (A) A              28 (A) A                 0.5504
     5 (A) B              28 (A) B                 0.5504
    ------------------------------------------------------
  ----------------------------------------------------------------------------


  Excited state 17 (A)                                             [converged]
  ----------------------------------------------------------------------------
  Term symbol:  18 (-) A                                    R^2 =  6.05609e-08

  Total energy:                                           -424.2800470837 a.u.
  Excitation energy:                                             330.242565 eV

  Osc. strength:                                                      0.000000
  Trans. dip. moment [a.u.]:           [   0.000000,   -0.000000,    0.000000]
  <i|r^2|0> [a.u.]:                    [  -0.000000,   -0.000000,   -0.000000]

  V1^2 = 0.8858, V2^2 = 0.1142

  Important amplitudes:
     core i     occ j      vir a      vir b          v   
    ------------------------------------------------------
     5 (A) B              32 (A) B                -0.5269
     5 (A) A              32 (A) A                 0.5269
    ------------------------------------------------------
  ----------------------------------------------------------------------------


  Excited state 18 (A)                                             [converged]
  ----------------------------------------------------------------------------
  Term symbol:  19 (-) A                                    R^2 =  5.53665e-07

  Total energy:                                           -424.2786543890 a.u.
  Excitation energy:                                             330.280463 eV

  Osc. strength:                                                      0.000374
  Trans. dip. moment [a.u.]:           [   0.005517,   -0.000615,   -0.003927]
  <i|r^2|0> [a.u.]:                    [  -0.008381,   -0.015489,    0.008965]

  V1^2 = 0.8864, V2^2 = 0.1136

  Important amplitudes:
     core i     occ j      vir a      vir b          v   
    ------------------------------------------------------
     5 (A) A              32 (A) A                 0.5500
     5 (A) B              32 (A) B                 0.5500
    ------------------------------------------------------
  ----------------------------------------------------------------------------


  Excited state 19 (A)                                         [not converged]
  ----------------------------------------------------------------------------
  Term symbol:  20 (-) A                                    R^2 =  3.36831e-06

  Total energy:                                           -424.2742526297 a.u.
  Excitation energy:                                             330.400240 eV


  V1^2 = 0.8764, V2^2 = 0.1236

  Important amplitudes:
     core i     occ j      vir a      vir b          v   
    ------------------------------------------------------
     5 (A) B              30 (A) B                 0.5484
     5 (A) A              30 (A) A                -0.5483
    ------------------------------------------------------
  ----------------------------------------------------------------------------


  Excited state 20 (A)                                         [not converged]
  ----------------------------------------------------------------------------
  Term symbol:  21 (-) A                                    R^2 =  3.87065e-06

  Total energy:                                           -424.2711794636 a.u.
  Excitation energy:                                             330.483866 eV


  V1^2 = 0.8836, V2^2 = 0.1164

  Important amplitudes:
     core i     occ j      vir a      vir b          v   
    ------------------------------------------------------
     5 (A) A              33 (A) A                -0.6164
     5 (A) B              33 (A) B                -0.6162
    ------------------------------------------------------
  ----------------------------------------------------------------------------


--------------------------------------------------------------------------------
  Time of ADC calculation:  CPU 3151.65 s  wall 1916.25 s
================================================================================
 
 --------------------------------------------------------------
 
                    Orbital Energies (a.u.)
 --------------------------------------------------------------
 
 Alpha MOs
 -- Occupied --
-26.423 -26.397 -26.367 -26.309 -11.610  -1.847  -1.740  -1.680
 -1.590  -1.018  -0.920  -0.906  -0.887  -0.772  -0.759  -0.738
 -0.711  -0.686  -0.653  -0.638  -0.631
 -- Virtual --
  0.343   0.419   0.443   0.498   0.652   0.679   0.703   0.740
  1.261   1.286   1.298   1.301   1.316   1.423   1.553   1.567
  1.581   1.604   1.619   1.665   1.679   1.695   1.744   1.841
  1.891   2.053   2.073   2.080   2.118   2.133   2.146   2.242
  2.264   2.288   2.299   2.343   2.375   2.410   2.431   2.587
  2.777   2.926   3.079   3.158   3.196   3.342   3.445   3.468
  3.528   4.500   4.711   4.807   5.055   6.306
 
 Beta MOs
 -- Occupied --
-26.423 -26.397 -26.367 -26.309 -11.610  -1.847  -1.740  -1.680
 -1.590  -1.018  -0.920  -0.906  -0.887  -0.772  -0.759  -0.738
 -0.711  -0.686  -0.653  -0.638  -0.631
 -- Virtual --
  0.343   0.419   0.443   0.498   0.652   0.679   0.703   0.740
  1.261   1.286   1.298   1.301   1.316   1.423   1.553   1.567
  1.581   1.604   1.619   1.665   1.679   1.695   1.744   1.841
  1.891   2.053   2.073   2.080   2.118   2.133   2.146   2.242
  2.264   2.288   2.299   2.343   2.375   2.410   2.431   2.587
  2.777   2.926   3.079   3.158   3.196   3.342   3.445   3.468
  3.528   4.500   4.711   4.807   5.055   6.306
 --------------------------------------------------------------
 
          Ground-State Mulliken Net Atomic Charges

     Atom                 Charge (a.u.)    Spin (a.u.)
  --------------------------------------------------------
      1 C                     1.281555       0.000000
      2 F                    -0.207558       0.000000
      3 F                    -0.345315       0.000000
      4 F                    -0.451261       0.000000
      5 F                    -0.277421       0.000000
  --------------------------------------------------------
  Sum of atomic charges =     0.000000
  Sum of spin   charges =     0.000000

 -----------------------------------------------------------------
                    Cartesian Multipole Moments
 -----------------------------------------------------------------
    Charge (ESU x 10^10)
                 0.0000
    Dipole Moment (Debye)
         X       1.0411      Y       0.9126      Z      -0.7524
       Tot       1.5757
    Quadrupole Moments (Debye-Ang)
        XX     -25.7327     XY       1.5535     YY     -21.4207
        XZ       0.7298     YZ      -1.5916     ZZ     -24.7699
    Octopole Moments (Debye-Ang^2)
       XXX      52.0681    XXY     -59.4361    XYY      20.7650
       YYY    -164.2914    XXZ      -0.7959    XYZ       1.4691
       YYZ      -4.7590    XZZ      18.0200    YZZ     -58.4702
       ZZZ       0.3811
    Hexadecapole Moments (Debye-Ang^3)
      XXXX    -146.0558   XXXY     120.2797   XXYY    -177.4903
      XYYY     131.9611   YYYY    -869.0556   XXXZ       1.6311
      XXYZ      -1.3789   XYYZ       4.1557   YYYZ     -16.2553
      XXZZ     -38.1953   XYZZ      42.2519   YYZZ    -164.4571
      XZZZ       0.4181   YZZZ       1.6159   ZZZZ     -76.9166
 -----------------------------------------------------------------
Archival summary:
1\1\tp-linux1\SP\HF\6-31G*\41\thomas\SunMar1903:10:082017SunMar1903:10:082017\0\\#,HF,6-31G*,\\0,1\C\F,1,1.20388\F,1,1.2596,2,117.585\F,1,1.32245,2,113.657,3,131.333,0\F,1,1.44697,2,107.163,3,-117.411,0\\HF=-435.616258\\@

 Total job time:  1919.71s(wall), 3160.20s(cpu) 
 Sun Mar 19 03:10:08 2017

        *************************************************************
        *                                                           *
        *  Thank you very much for using Q-Chem.  Have a nice day.  *
        *                                                           *
        *************************************************************


0 sent ACK to 0 
now end server 0 ... 
cleanup process ... done
