
Running Job 1 of 2 ddtraj1t7.inp
qchem ddtraj1t7.inp_28569.0 /scratch/qchem/qchem28569/ 1
/mnt/software/qchem/bin/mpi/mpirun_qchem -machinefile /mnt/software/qchem/bin/mpi/machines -np 1 /mnt/software/qchem/exe/qcprog.exe ddtraj1t7.inp_28569.0 /scratch/qchem/qchem28569/

Process 0 of 1 is on tp-linux1 - thread support 0
initial socket setup ...start
initial socket setup ...done 
now start server 0 ... 

cmd = ssh tp-linux1 /mnt/software/qchem/bin/get_hostid 997135678 > /scratch/qchem/qchem28569/lic.dat
                  Welcome to Q-Chem
     A Quantum Leap Into The Future Of Chemistry


 Q-Chem 4.3, Q-Chem, Inc., Pleasanton, CA (2015)

 Y. Shao,  Z. Gan,  E. Epifanovsky,  A. T. B. Gilbert,  M. Wormit,  
 J. Kussmann,  A. W. Lange,  A. Behn,  J. Deng,  X. Feng,  D. Ghosh,  
 M. Goldey,  P. R. Horn,  L. D. Jacobson,  I. Kaliman,  R. Z. Khaliullin,  
 T. Kus,  A. Landau,  J. Liu,  E. I. Proynov,  Y. M. Rhee,  R. M. Richard,  
 M. A. Rohrdanz,  R. P. Steele,  E. J. Sundstrom,  H. L. Woodcock III,  
 P. M. Zimmerman,  D. Zuev,  B. Albrecht,  E. Alguire,  B. Austin,  
 S. A. Baeppler,  G. J. O. Beran,  Y. A. Bernard,  E. Berquist,  
 K. Brandhorst,  K. B. Bravaya,  S. T. Brown,  D. Casanova,  C.-M. Chang,  
 Y. Chen,  S. H. Chien,  K. D. Closser,  D. L. Crittenden,  M. Diedenhofen,  
 R. A. DiStasio Jr.,  H. Do,  A. D. Dutoi,  R. G. Edgar,  P.-T. Fang,  
 S. Fatehi,  Q. Feng,  L. Fusti-Molnar,  A. Ghysels,  
 A. Golubeva-Zadorozhnaya,  J. Gomes,  A. Gunina,  M. W. D. Hanson-Heine,  
 P. H. P. Harbach,  A. W. Hauser,  E. G. Hohenstein,  Z. C. Holden,  K. Hui,  
 T.-C. Jagau,  H. Ji,  B. Kaduk,  K. Khistyaev,  Jaehoon Kim,  Jihan Kim,  
 R. A. King,  P. Klunzinger,  D. Kosenkov,  T. Kowalczyk,  C. M. Krauter,  
 K. U. Lao,  A. Laurent,  K. V. Lawler,  S. Lehtola,  S. V. Levchenko,  
 C. Y. Lin,  Y.-S. Lin,  F. Liu,  E. Livshits,  R. C. Lochan,  A. Luenser,  
 P. Manohar,  S. F. Manzer,  S.-P. Mao,  N. Mardirossian,  A. V. Marenich,  
 L. A. Martinez-Martinez,  S. A. Maurer,  N. J. Mayhall,  K. Nanda,  
 C. M. Oana,  R. Olivares-Amaya,  D. P. O'Neill,  J. A. Parkhill,  
 T. M. Perrine,  R. Peverati,  P. A. Pieniazek,  F. Plasser,  A. Prociuk,  
 D. R. Rehn,  E. Rosta,  N. J. Russ,  N. Sergueev,  S. M. Sharada,  
 S. Sharma,  D. W. Small,  A. Sodt,  T. Stauch,  T. Stein,  D. Stuck,  
 Y.-C. Su,  A. J. W. Thom,  T. Tsuchimochi,  L. Vogt,  O. Vydrov,  T. Wang,  
 M. A. Watson,  J. Wenzel,  A. White,  C. F. Williams,  V. Vanovschi,  
 S. Yeganeh,  S. R. Yost,  Z.-Q. You,  I. Y. Zhang,  X. Zhang,  Y. Zhao,  
 B. R. Brooks,  G. K. L. Chan,  D. M. Chipman,  C. J. Cramer,  
 W. A. Goddard III,  M. S. Gordon,  W. J. Hehre,  A. Klamt,  
 H. F. Schaefer III,  M. W. Schmidt,  C. D. Sherrill,  D. G. Truhlar,  
 A. Warshel,  X. Xu,  A. Aspuru-Guzik,  R. Baer,  A. T. Bell,  N. A. Besley,  
 J.-D. Chai,  A. Dreuw,  B. D. Dunietz,  T. R. Furlani,  S. R. Gwaltney,  
 C.-P. Hsu,  Y. Jung,  J. Kong,  D. S. Lambrecht,  W. Liang,  C. Ochsenfeld,  
 V. A. Rassolov,  L. V. Slipchenko,  J. E. Subotnik,  T. Van Voorhis,  
 J. M. Herbert,  A. I. Krylov,  P. M. W. Gill,  M. Head-Gordon

 Contributors to earlier versions of Q-Chem not listed above: 
 R. D. Adamson,  J. Baker,  E. F. C. Byrd,  A. K. Chakraborty,  C.-L. Cheng,  
 H. Dachsel,  R. J. Doerksen,  G. Hawkins,  A. Heyden,  S. Hirata,  
 G. Kedziora,  F. J. Keil,  C. Kelley,  P. P. Korambath,  W. Kurlancheek,  
 A. M. Lee,  M. S. Lee,  D. Liotard,  I. Lotan,  P. E. Maslen,  N. Nair,  
 D. Neuhauser,  R. Olson,  B. Peters,  J. Ritchie,  N. E. Schultz,  
 N. Shenvi,  A. C. Simmonett,  K. S. Thanthiriwatte,  Q. Wu,  W. Zhang

 Please cite Q-Chem as follows:
 Y. Shao et al., Mol. Phys. 113, 184-215 (2015)
 DOI: 10.1080/00268976.2014.952696

 Q-Chem 4.3.0 for Intel X86 Linux

 Parts of Q-Chem use Armadillo 5.200.1 (Boston Tea Smuggler).
 http://arma.sourceforge.net/

 Q-Chem begins on Thu Mar 16 18:35:41 2017  

Host: 
0

     Scratch files written to /scratch/qchem/qchem28569//
 Nov1815 1189b_ 19540  19532 5443   
 Parallel job on  1  processors
Processing $rem in /mnt/software/qchem/config/preferences.
 MEM_TOTAL  2000 

Checking the input file for inconsistencies... 	...done.

--------------------------------------------------------------
User input:
--------------------------------------------------------------
$comment
XAS calculation for the 2b valence excited for water using cvs-adc(2)-x + 6-311+G* basis set
job 1 - determination of HF orbitals
$end

$molecule
0 1
6  -0.622262  2.539759  -0.066858
9  0.592339  2.335697  0.001568
9  -1.137699  3.261695  0.783529
9  -1.16153  1.132043  0.457211
9  -1.137968  2.546943  -1.210009
$end

$rem
jobtype      sp
sym_ignore true
exchange     hf
basis        6-31G*
unrestricted true
$end

--------------------------------------------------------------
 ----------------------------------------------------------------
             Standard Nuclear Orientation (Angstroms)
    I     Atom           X                Y                Z
 ----------------------------------------------------------------
    1      C      -0.6222620000     2.5397590000    -0.0668580000
    2      F       0.5923390000     2.3356970000     0.0015680000
    3      F      -1.1376990000     3.2616950000     0.7835290000
    4      F      -1.1615300000     1.1320430000     0.4572110000
    5      F      -1.1379680000     2.5469430000    -1.2100090000
 ----------------------------------------------------------------
 Nuclear Repulsion Energy =   207.0312050100 hartrees
 There are       21 alpha and       21 beta electrons
 Requested basis set is 6-31G(d)
 There are 20 shells and 75 basis functions

 Total QAlloc Memory Limit   2000 MB
 Mega-Array Size        61 MB
 MEM_STATIC part        62 MB

                       Distance Matrix (Angstroms)
             C (  1)   F (  2)   F (  3)   F (  4)
   F (  2)  1.233523
   F (  3)  1.228831  2.112337
   F (  4)  1.595971  2.175419  2.154639
   F (  5)  1.254113  2.122853  2.117797  2.186806
 
 tim1(1): 
  0.000000000000000E+000
 tim1(2): 
  0.000000000000000E+000
 A cutoff of  1.0D-08 yielded    199 shell pairs
 There are      2962 function pairs
 
 -------------------------------------------------------
 OpenMP Integral Computing Module                       
 Release: version 1.0, May 2013, Q-Chem Inc. Pittsburgh 
 -------------------------------------------------------
 Integral Job Info:
 Integral job number is                      11
 Integral operator is                         1
 short-range coefficients                     0
 long-range coefficients              100000000
 Omega coefficients                           0
 if combine SR and LR in K                    0
 Integral screening is                        0
 Integral computing path is                   2
 max size of driver memory is            800000
 size of driver memory is                593474
 size of scratch memory is              2260544
 max col of scratch BK array               1296
 max len of scratch array in speh3          155
 max len of scratch index in speh4           18
 max int batch size is                      520
 min int batch size is                       52
 fixed nKL is                                52
 max L of basis functions is                  2
 order of int derivative is                   0
 number of shells is                         20
 number of basis is                          75
 number of cartesian basis is                75
 number of contracted shell pairs           199
 number of primitive shell pairs            983
 maxK2 (contraction) of shell pair           36
 max number of K2 of shell pair               1
 max number of CS2 of shell pair             28
 max number of PS2 of shell pair            180
 mem total for path MDJ                   21832
 -------------------------------------------------------
 Smallest overlap matrix eigenvalue = 1.67E-03

 Scale SEOQF with 1.000000e+00/1.000000e-01/1.000000e+00

 Standard Electronic Orientation quadrupole field applied
 Nucleus-field energy     =     0.0000000106 hartrees
 Guess from superposition of atomic densities
 Warning:  Energy on first SCF cycle will be non-variational
 An unrestricted Hartree-Fock SCF calculation will be
 performed using Pulay DIIS extrapolation
 SCF converges when DIIS error is below 1.0E-05
 using 8 threads for integral computing 
 ---------------------------------------
  Cycle       Energy         DIIS Error
 ---------------------------------------
    1    -436.6187757480      9.17E-02
    2    -435.3946125323      1.82E-02
    3    -435.5236520226      1.11E-02
    4    -435.5775808394      1.08E-03
    5    -435.5784337253      3.91E-04
    6    -435.5785687690      1.04E-04
    7    -435.5785793886      4.45E-05
    8    -435.5785813132      7.46E-06 Convergence criterion met
 ---------------------------------------
 <S^2> = 0.0000
 SCF time:  CPU 9.18 s  wall 128.43 s
 SCF   energy in the final basis set = -435.5785813132
 Total energy in the final basis set = -435.5785813132
 
 --------------------------------------------------------------
 
                    Orbital Energies (a.u.)
 --------------------------------------------------------------
 
 Alpha MOs
 -- Occupied --
-26.422 -26.421 -26.413 -26.241 -11.626  -1.855  -1.753  -1.739
 -1.507  -1.028  -0.935  -0.932  -0.887  -0.780  -0.777  -0.754
 -0.748  -0.717  -0.581  -0.579  -0.579
 -- Virtual --
  0.248   0.387   0.487   0.495   0.656   0.697   0.712   0.727
  1.270   1.272   1.282   1.304   1.306   1.436   1.549   1.555
  1.566   1.568   1.582   1.639   1.708   1.710   1.773   1.897
  1.900   2.016   2.038   2.041   2.065   2.145   2.151   2.238
  2.242   2.301   2.308   2.334   2.381   2.444   2.461   2.484
  2.761   2.971   2.988   3.210   3.242   3.260   3.500   3.508
  3.557   4.364   4.727   5.054   5.105   6.391
 
 Beta MOs
 -- Occupied --
-26.422 -26.421 -26.413 -26.241 -11.626  -1.855  -1.753  -1.739
 -1.507  -1.028  -0.935  -0.932  -0.887  -0.780  -0.777  -0.754
 -0.748  -0.717  -0.581  -0.579  -0.579
 -- Virtual --
  0.248   0.387   0.487   0.495   0.656   0.697   0.712   0.727
  1.270   1.272   1.282   1.304   1.306   1.436   1.549   1.555
  1.566   1.568   1.582   1.639   1.708   1.710   1.773   1.897
  1.900   2.016   2.038   2.041   2.065   2.145   2.151   2.238
  2.242   2.301   2.308   2.334   2.381   2.444   2.461   2.484
  2.761   2.971   2.988   3.210   3.242   3.260   3.500   3.508
  3.557   4.364   4.727   5.054   5.105   6.391
 --------------------------------------------------------------
 
          Ground-State Mulliken Net Atomic Charges

     Atom                 Charge (a.u.)    Spin (a.u.)
  --------------------------------------------------------
      1 C                     1.258739       0.000000
      2 F                    -0.232040       0.000000
      3 F                    -0.226462       0.000000
      4 F                    -0.543531       0.000000
      5 F                    -0.256706       0.000000
  --------------------------------------------------------
  Sum of atomic charges =     0.000000
  Sum of spin   charges =     0.000000

 -----------------------------------------------------------------
                    Cartesian Multipole Moments
 -----------------------------------------------------------------
    Charge (ESU x 10^10)
                 0.0000
    Dipole Moment (Debye)
         X       1.0205      Y       2.5561      Z      -0.8432
       Tot       2.8785
    Quadrupole Moments (Debye-Ang)
        XX     -25.8029     XY      -0.1239     YY     -14.0164
        XZ       0.8297     YZ      -1.2076     ZZ     -24.4771
    Octopole Moments (Debye-Ang^2)
       XXX      52.2564    XXY     -57.7804    XYY      13.6426
       YYY    -137.2022    XXZ      -0.8593    XYZ       0.9101
       YYZ      -2.6409    XZZ      17.6799    YZZ     -57.2009
       ZZZ       0.5157
    Hexadecapole Moments (Debye-Ang^3)
      XXXX    -147.6994   XXXY     117.2161   XXYY    -170.8878
      XYYY     106.1585   YYYY    -778.0953   XXXZ       1.7035
      XXYZ      -0.0232   XYYZ       1.2561   YYYZ      -6.7540
      XXZZ     -38.0361   XYZZ      40.5783   YYZZ    -160.6857
      XZZZ       0.3442   YZZZ       3.9500   ZZZZ     -76.5771
 -----------------------------------------------------------------
Archival summary:
1\1\tp-linux1\SP\HF\6-31G*\41\thomas\ThuMar1618:37:492017ThuMar1618:37:492017\0\\#,HF,6-31G*,\\0,1\C\F,1,1.22883\F,1,1.23352,2,118.153\F,1,1.25411,2,117.062,3,148.725,0\F,1,1.59597,2,98.5821,3,-105.91,0\\HF=-435.578581\\@

 Total job time:  128.76s(wall), 10.92s(cpu) 
 Thu Mar 16 18:37:49 2017

        *************************************************************
        *                                                           *
        *  Thank you very much for using Q-Chem.  Have a nice day.  *
        *                                                           *
        *************************************************************


0 sent ACK to 0 
now end server 0 ... 
cleanup process ... done

Running Job 2 of 2 ddtraj1t7.inp
qchem ddtraj1t7.inp_28569.1 /scratch/qchem/qchem28569/ 1
/mnt/software/qchem/bin/mpi/mpirun_qchem -machinefile /mnt/software/qchem/bin/mpi/machines -np 1 /mnt/software/qchem/exe/qcprog.exe ddtraj1t7.inp_28569.1 /scratch/qchem/qchem28569/

Process 0 of 1 is on tp-linux1 - thread support 0
initial socket setup ...start
initial socket setup ...done 
now start server 0 ... 

cmd = ssh tp-linux1 /mnt/software/qchem/bin/get_hostid 582161819 > /scratch/qchem/qchem28569/lic.dat
                  Welcome to Q-Chem
     A Quantum Leap Into The Future Of Chemistry


 Q-Chem 4.3, Q-Chem, Inc., Pleasanton, CA (2015)

 Y. Shao,  Z. Gan,  E. Epifanovsky,  A. T. B. Gilbert,  M. Wormit,  
 J. Kussmann,  A. W. Lange,  A. Behn,  J. Deng,  X. Feng,  D. Ghosh,  
 M. Goldey,  P. R. Horn,  L. D. Jacobson,  I. Kaliman,  R. Z. Khaliullin,  
 T. Kus,  A. Landau,  J. Liu,  E. I. Proynov,  Y. M. Rhee,  R. M. Richard,  
 M. A. Rohrdanz,  R. P. Steele,  E. J. Sundstrom,  H. L. Woodcock III,  
 P. M. Zimmerman,  D. Zuev,  B. Albrecht,  E. Alguire,  B. Austin,  
 S. A. Baeppler,  G. J. O. Beran,  Y. A. Bernard,  E. Berquist,  
 K. Brandhorst,  K. B. Bravaya,  S. T. Brown,  D. Casanova,  C.-M. Chang,  
 Y. Chen,  S. H. Chien,  K. D. Closser,  D. L. Crittenden,  M. Diedenhofen,  
 R. A. DiStasio Jr.,  H. Do,  A. D. Dutoi,  R. G. Edgar,  P.-T. Fang,  
 S. Fatehi,  Q. Feng,  L. Fusti-Molnar,  A. Ghysels,  
 A. Golubeva-Zadorozhnaya,  J. Gomes,  A. Gunina,  M. W. D. Hanson-Heine,  
 P. H. P. Harbach,  A. W. Hauser,  E. G. Hohenstein,  Z. C. Holden,  K. Hui,  
 T.-C. Jagau,  H. Ji,  B. Kaduk,  K. Khistyaev,  Jaehoon Kim,  Jihan Kim,  
 R. A. King,  P. Klunzinger,  D. Kosenkov,  T. Kowalczyk,  C. M. Krauter,  
 K. U. Lao,  A. Laurent,  K. V. Lawler,  S. Lehtola,  S. V. Levchenko,  
 C. Y. Lin,  Y.-S. Lin,  F. Liu,  E. Livshits,  R. C. Lochan,  A. Luenser,  
 P. Manohar,  S. F. Manzer,  S.-P. Mao,  N. Mardirossian,  A. V. Marenich,  
 L. A. Martinez-Martinez,  S. A. Maurer,  N. J. Mayhall,  K. Nanda,  
 C. M. Oana,  R. Olivares-Amaya,  D. P. O'Neill,  J. A. Parkhill,  
 T. M. Perrine,  R. Peverati,  P. A. Pieniazek,  F. Plasser,  A. Prociuk,  
 D. R. Rehn,  E. Rosta,  N. J. Russ,  N. Sergueev,  S. M. Sharada,  
 S. Sharma,  D. W. Small,  A. Sodt,  T. Stauch,  T. Stein,  D. Stuck,  
 Y.-C. Su,  A. J. W. Thom,  T. Tsuchimochi,  L. Vogt,  O. Vydrov,  T. Wang,  
 M. A. Watson,  J. Wenzel,  A. White,  C. F. Williams,  V. Vanovschi,  
 S. Yeganeh,  S. R. Yost,  Z.-Q. You,  I. Y. Zhang,  X. Zhang,  Y. Zhao,  
 B. R. Brooks,  G. K. L. Chan,  D. M. Chipman,  C. J. Cramer,  
 W. A. Goddard III,  M. S. Gordon,  W. J. Hehre,  A. Klamt,  
 H. F. Schaefer III,  M. W. Schmidt,  C. D. Sherrill,  D. G. Truhlar,  
 A. Warshel,  X. Xu,  A. Aspuru-Guzik,  R. Baer,  A. T. Bell,  N. A. Besley,  
 J.-D. Chai,  A. Dreuw,  B. D. Dunietz,  T. R. Furlani,  S. R. Gwaltney,  
 C.-P. Hsu,  Y. Jung,  J. Kong,  D. S. Lambrecht,  W. Liang,  C. Ochsenfeld,  
 V. A. Rassolov,  L. V. Slipchenko,  J. E. Subotnik,  T. Van Voorhis,  
 J. M. Herbert,  A. I. Krylov,  P. M. W. Gill,  M. Head-Gordon

 Contributors to earlier versions of Q-Chem not listed above: 
 R. D. Adamson,  J. Baker,  E. F. C. Byrd,  A. K. Chakraborty,  C.-L. Cheng,  
 H. Dachsel,  R. J. Doerksen,  G. Hawkins,  A. Heyden,  S. Hirata,  
 G. Kedziora,  F. J. Keil,  C. Kelley,  P. P. Korambath,  W. Kurlancheek,  
 A. M. Lee,  M. S. Lee,  D. Liotard,  I. Lotan,  P. E. Maslen,  N. Nair,  
 D. Neuhauser,  R. Olson,  B. Peters,  J. Ritchie,  N. E. Schultz,  
 N. Shenvi,  A. C. Simmonett,  K. S. Thanthiriwatte,  Q. Wu,  W. Zhang

 Please cite Q-Chem as follows:
 Y. Shao et al., Mol. Phys. 113, 184-215 (2015)
 DOI: 10.1080/00268976.2014.952696

 Q-Chem 4.3.0 for Intel X86 Linux

 Parts of Q-Chem use Armadillo 5.200.1 (Boston Tea Smuggler).
 http://arma.sourceforge.net/

 Q-Chem begins on Thu Mar 16 18:37:52 2017  

Host: 
0

     Scratch files written to /scratch/qchem/qchem28569//
 Nov1815 1189b_ 19540  19532 5443   
 Parallel job on  1  processors
Processing $rem in /mnt/software/qchem/config/preferences.
 MEM_TOTAL  2000 

Checking the input file for inconsistencies... 	...done.

--------------------------------------------------------------
User input:
--------------------------------------------------------------

$comment
job3 - cvs-adc(2) calculation
$end

$molecule
read
$end

$rem
mem_total 3000
mem_static 1500
sym_ignore true
scf_guess read
method cvs-adc(2)
basis 6-31G*
ee_singlets 20
cc_rest_occ 5                  !only excitations from the lowest N orbitals
unrestricted  true
max_scf_cycles 200
$end
--------------------------------------------------------------
 ----------------------------------------------------------------
             Standard Nuclear Orientation (Angstroms)
    I     Atom           X                Y                Z
 ----------------------------------------------------------------
    1      C      -0.6222620000     2.5397590000    -0.0668580000
    2      F       0.5923390000     2.3356970000     0.0015680000
    3      F      -1.1376990000     3.2616950000     0.7835290000
    4      F      -1.1615300000     1.1320430000     0.4572110000
    5      F      -1.1379680000     2.5469430000    -1.2100090000
 ----------------------------------------------------------------
 Nuclear Repulsion Energy =   207.0312050100 hartrees
 There are       21 alpha and       21 beta electrons
 Requested basis set is 6-31G(d)
 There are 20 shells and 75 basis functions

 Total QAlloc Memory Limit   3000 MB
 Mega-Array Size      1467 MB
 MEM_STATIC part      1500 MB

                       Distance Matrix (Angstroms)
             C (  1)   F (  2)   F (  3)   F (  4)
   F (  2)  1.233523
   F (  3)  1.228831  2.112337
   F (  4)  1.595971  2.175419  2.154639
   F (  5)  1.254113  2.122853  2.117797  2.186806
 
 tim1(1): 
  0.000000000000000E+000
 tim1(2): 
  0.000000000000000E+000
 A cutoff of  1.0D-11 yielded    204 shell pairs
 There are      2979 function pairs
 
 -------------------------------------------------------
 OpenMP Integral Computing Module                       
 Release: version 1.0, May 2013, Q-Chem Inc. Pittsburgh 
 -------------------------------------------------------
 Integral Job Info:
 Integral job number is                      11
 Integral operator is                         1
 short-range coefficients                     0
 long-range coefficients              100000000
 Omega coefficients                           0
 if combine SR and LR in K                    0
 Integral screening is                        0
 Integral computing path is                   2
 max size of driver memory is            800000
 size of driver memory is                593474
 size of scratch memory is              2260544
 max col of scratch BK array               1296
 max len of scratch array in speh3          155
 max len of scratch index in speh4           18
 max int batch size is                      520
 min int batch size is                       52
 fixed nKL is                                52
 max L of basis functions is                  2
 order of int derivative is                   0
 number of shells is                         20
 number of basis is                          75
 number of cartesian basis is                75
 number of contracted shell pairs           204
 number of primitive shell pairs           1071
 maxK2 (contraction) of shell pair           36
 max number of K2 of shell pair               1
 max number of CS2 of shell pair             37
 max number of PS2 of shell pair            222
 mem total for path MDJ                   21832
 -------------------------------------------------------
 Smallest overlap matrix eigenvalue = 1.67E-03

 Scale SEOQF with 1.000000e+00/1.000000e-01/1.000000e+00

 Standard Electronic Orientation quadrupole field applied
 Nucleus-field energy     =     0.0000000106 hartrees
 Guess MOs from SCF MO coefficient file
 Reading MOs from coefficient file
 Reading MOs from coefficient file
 An unrestricted Hartree-Fock SCF calculation will be
 performed using Pulay DIIS extrapolation
 SCF converges when DIIS error is below 1.0E-08
 using 8 threads for integral computing 
 ---------------------------------------
  Cycle       Energy         DIIS Error
 ---------------------------------------
    1    -435.5785814259      2.04E-06
    2    -435.5785814300      8.65E-07
    3    -435.5785814311      5.36E-07
    4    -435.5785814314      5.73E-08
    5    -435.5785814314      2.08E-08
    6    -435.5785814314      5.96E-09 Convergence criterion met
 ---------------------------------------
 <S^2> = 0.0000
 SCF time:  CPU 5.91 s  wall 1.54 s
 SCF   energy in the final basis set = -435.5785814314
 Total energy in the final basis set = -435.5785814314
================================================================================
|                                                                              |
|                                 A D C  M A N                                 |
|                                                                              |
 ------------------------------------------------------------------------------ 
|                                                                              |
| Components:                                                                  |
|                                                                              |
| - libvmm - 1.2-release                                                       |
|   Authors:                                                                   |
|   Evgeny Epifanovsky, Ilya Kaliman                                           |
|                                                                              |
| - libtensor - 2.4-trunk                                                      |
|   Authors:                                                                   |
|   Evgeny Epifanovsky, Michael Wormit, Dmitry Zuev, Sam Manzer                |
|                                                                              |
| - libwfa - 1.1-beta                                                          |
|   Authors:                                                                   |
|   Felix Plasser, Stefanie Baeppler, Benjamin Thomitzni, Michael Wormit       |
|                                                                              |
| - libadc - 1.0-beta                                                          |
|   Authors:                                                                   |
|   Michael Wormit, Philipp H. P. Harbach, Caroline Krauter, Dirk Rehn,        |
|   Matthias Schneider, Jan Wenzel                                             |
|                                                                              |
| - adcman - 2.4-beta                                                          |
|   Authors:                                                                   |
|   Michael Wormit, Philipp H. P. Harbach, Caroline Krauter, Dirk Rehn,        |
|   Jan Wenzel, Andreas Dreuw                                                  |
|                                                                              |
| Authors of earlier versions of ADCMAN:                                       |
| Andreas Dreuw, Jan Hendrik Starcke, Dirk Rehn, Michael Wormit                |
|                                                                              |
================================================================================

 
 Alpha MOs, Unrestricted
 -- Occupied --                  
-26.422 -26.421 -26.413 -26.241 -11.626  -1.855  -1.753  -1.739
  1 A     2 A     3 A     4 A     5 A     6 A     7 A     8 A                  
 -1.507  -1.028  -0.935  -0.932  -0.887  -0.780  -0.777  -0.754
  9 A    10 A    11 A    12 A    13 A    14 A    15 A    16 A                  
 -0.748  -0.717  -0.581  -0.579  -0.579
 17 A    18 A    19 A    20 A    21 A                                          
 -- Virtual --                   
  0.248   0.387   0.487   0.495   0.656   0.697   0.712   0.727
 22 A    23 A    24 A    25 A    26 A    27 A    28 A    29 A                  
  1.270   1.272   1.282   1.304   1.306   1.436   1.549   1.555
 30 A    31 A    32 A    33 A    34 A    35 A    36 A    37 A                  
  1.566   1.568   1.582   1.639   1.708   1.710   1.773   1.897
 38 A    39 A    40 A    41 A    42 A    43 A    44 A    45 A                  
  1.900   2.016   2.038   2.041   2.065   2.145   2.151   2.238
 46 A    47 A    48 A    49 A    50 A    51 A    52 A    53 A                  
  2.242   2.301   2.308   2.334   2.381   2.444   2.461   2.484
 54 A    55 A    56 A    57 A    58 A    59 A    60 A    61 A                  
  2.761   2.971   2.988   3.210   3.242   3.260   3.500   3.508
 62 A    63 A    64 A    65 A    66 A    67 A    68 A    69 A                  
  3.557   4.364   4.727   5.054   5.105   6.391
 70 A    71 A    72 A    73 A    74 A    75 A                                  
 
 Beta MOs, Unrestricted
 -- Occupied --                  
-26.422 -26.421 -26.413 -26.241 -11.626  -1.855  -1.753  -1.739
  1 A     2 A     3 A     4 A     5 A     6 A     7 A     8 A                  
 -1.507  -1.028  -0.935  -0.932  -0.887  -0.780  -0.777  -0.754
  9 A    10 A    11 A    12 A    13 A    14 A    15 A    16 A                  
 -0.748  -0.717  -0.581  -0.579  -0.579
 17 A    18 A    19 A    20 A    21 A                                          
 -- Virtual --                   
  0.248   0.387   0.487   0.495   0.656   0.697   0.712   0.727
 22 A    23 A    24 A    25 A    26 A    27 A    28 A    29 A                  
  1.270   1.272   1.282   1.304   1.306   1.436   1.549   1.555
 30 A    31 A    32 A    33 A    34 A    35 A    36 A    37 A                  
  1.566   1.568   1.582   1.639   1.708   1.710   1.773   1.897
 38 A    39 A    40 A    41 A    42 A    43 A    44 A    45 A                  
  1.900   2.016   2.038   2.041   2.065   2.145   2.151   2.238
 46 A    47 A    48 A    49 A    50 A    51 A    52 A    53 A                  
  2.242   2.301   2.308   2.334   2.381   2.444   2.461   2.484
 54 A    55 A    56 A    57 A    58 A    59 A    60 A    61 A                  
  2.761   2.971   2.988   3.210   3.242   3.260   3.500   3.508
 62 A    63 A    64 A    65 A    66 A    67 A    68 A    69 A                  
  3.557   4.364   4.727   5.054   5.105   6.391
 70 A    71 A    72 A    73 A    74 A    75 A                                  
 

--------------------------------------------------------------------------------
                                   HF Summary                                   
--------------------------------------------------------------------------------
  Energy:                                                 -435.5785814314 a.u.
  Dip. moment [a.u.]:                  [ -55.840882,  185.559486,    0.122960]
  Total dipole [Debye]:                                             492.538764
  <r^2> [a.u.]:                        [ 165.338178,  915.563141,   91.799902]
  Total <r^2> [a.u.]:                                              1172.701221
--------------------------------------------------------------------------------

--------------------------------------------------------------------------------
                                 MP(2) Summary                                  
--------------------------------------------------------------------------------
  Energy contribution:                                      -0.8037569901 a.u.
  Total energy:                                           -436.3823384215 a.u.
  Dip. moment [a.u.]:                  [ -55.792572,  185.680804,    0.080300]
  Total dipole [Debye]:                                             492.798646
  <r^2> [a.u.]:                        [ 165.125775,  916.495128,   91.709288]
  Total <r^2> [a.u.]:                                              1173.330191
--------------------------------------------------------------------------------
  Starting Davidson ... 
--------------------------------------------------------------------------------
   It NVec Conv  Avg. Norm  Max. Norm  Conv. states           Remark
--------------------------------------------------------------------------------
        20    0  2.100e-01  1.037e+00 11.1011 n n n n n n n n Guess.
    1   40    0  3.596e-02  3.204e-01 10.9285 n n n n n n n n 
    2   60    0  6.957e-03  5.649e-02 10.9268 n n n n n n n n 
    3   80    0  2.437e-03  2.399e-02 10.9268 n n n n n n n n 
    4  100    0  1.551e-03  1.590e-02 10.9268 n n n n n n n n 
    5   40    0  8.011e-04  8.524e-03 10.9268 n n n n n n n n Subspace collapsed.
    6   60    0  7.315e-04  9.160e-03 10.9268 n n n n n n n n 
    7   80    0  7.734e-04  9.962e-03 10.9268 n n n n n n n n 
    8  100    2  1.472e-03  2.353e-02 10.9268 y y n n n n n n 
    9   40    6  6.111e-04  9.603e-03 10.9268 y y y n y n y y Subspace collapsed.
   10   60    8  4.350e-04  6.472e-03 10.9268 y y y y y y y y 
   11   80    9  3.139e-04  4.016e-03 10.9268 y y y y y y y y 
   12  100   13  3.129e-04  4.523e-03 10.9268 y y y y y y y y 
   13   40   14  2.772e-04  3.490e-03 10.9268 y y y y y y y y Subspace collapsed.
   14   60   16  3.873e-04  6.231e-03 10.9268 y y y y y y y y 
   15   80   16  5.379e-04  9.365e-03 10.9268 y y y y y y y y 
   16  100   16  9.077e-04  1.552e-02 10.9268 y y y y y y y y 
   17   40   16  5.342e-04  9.703e-03 10.9268 y y y y y y y y Subspace collapsed.
   18   58   16  3.953e-04  6.803e-03 10.9268 y y y y y y y y 
   19   75   16  2.370e-04  3.631e-03 10.9268 y y y y y y y y 
   20   76   16  2.371e-04  3.631e-03 10.9268 y y y y y y y y 
   21   77   16  2.373e-04  3.635e-03 10.9268 y y y y y y y y 
   22   77   16  2.373e-04  3.635e-03 10.9268 y y y y y y y y 
   23   97   16  2.349e-04  3.721e-03 10.9268 y y y y y y y y 
   24  100   16  2.334e-04  3.715e-03 10.9268 y y y y y y y y 
   25   32   16  2.237e-04  3.493e-03 10.9268 y y y y y y y y Subspace collapsed.
   26   44   16  3.388e-04  5.752e-03 10.9268 y y y y y y y y 
   27   44   16  3.388e-04  5.752e-03 10.9268 y y y y y y y y 
   28   60   16  3.964e-04  7.036e-03 10.9268 y y y y y y y y 
   29   71   16  5.949e-04  1.032e-02 10.9268 y y y y y y y y 
   30   75   16  5.991e-04  1.040e-02 10.9268 y y y y y y y y 
   31   78   16  6.045e-04  1.052e-02 10.9268 y y y y y y y y 
   32   78   16  6.045e-04  1.052e-02 10.9268 y y y y y y y y 
   33   78   16  6.045e-04  1.052e-02 10.9268 y y y y y y y y 
   34   98   16  1.109e-03  2.073e-02 10.9268 y y y y y y y y 
   35  100   16  1.113e-03  2.081e-02 10.9268 y y y y y y y y 
   36   26   16  4.041e-04  7.550e-03 10.9268 y y y y y y y y Subspace collapsed.
   37   32   16  2.327e-04  4.409e-03 10.9268 y y y y y y y y 
   38   38   16  1.368e-04  2.591e-03 10.9268 y y y y y y y y 
   39   44   16  1.188e-04  2.263e-03 10.9268 y y y y y y y y 
   40   50   16  9.922e-05  1.886e-03 10.9268 y y y y y y y y 
   41   56   16  1.593e-04  3.045e-03 10.9268 y y y y y y y y 
   42   62   16  2.041e-04  3.879e-03 10.9268 y y y y y y y y 
   43   68   16  1.650e-04  3.052e-03 10.9268 y y y y y y y y 
   44   68   16  1.650e-04  3.052e-03 10.9268 y y y y y y y y 
   45   71   16  1.648e-04  3.046e-03 10.9268 y y y y y y y y 
   46   71   16  1.648e-04  3.046e-03 10.9268 y y y y y y y y 
   47   73   16  1.629e-04  3.006e-03 10.9268 y y y y y y y y 
   48   73   16  1.629e-04  3.006e-03 10.9268 y y y y y y y y 
   49   74   16  1.617e-04  2.980e-03 10.9268 y y y y y y y y 
   50   74   16  1.617e-04  2.980e-03 10.9268 y y y y y y y y 
   51   75   16  1.615e-04  2.976e-03 10.9268 y y y y y y y y 
   52   75   16  1.615e-04  2.976e-03 10.9268 y y y y y y y y 
   53   76   16  1.615e-04  2.975e-03 10.9268 y y y y y y y y 
   54   76   16  1.615e-04  2.975e-03 10.9268 y y y y y y y y 
   55   76   16  1.615e-04  2.975e-03 10.9268 y y y y y y y y 
   56   96   16  1.240e-04  2.335e-03 10.9268 y y y y y y y y 
   57  100   16  1.296e-04  2.514e-03 10.9268 y y y y y y y y 
   58   25   16  8.892e-05  1.731e-03 10.9268 y y y y y y y y Subspace collapsed.
   59   30   16  1.167e-04  2.285e-03 10.9268 y y y y y y y y 
--------------------------------------------------------------------------------
  Davidson Summary: 
 ------------------------------------------------------------
  State  0: excitation energy =  10.9268 a.u.   (converged)
  State  1: excitation energy =  11.0012 a.u.   (converged)
  State  2: excitation energy =  11.1581 a.u.   (converged)
  State  3: excitation energy =  11.1793 a.u.   (converged)
  State  4: excitation energy =  11.1919 a.u.   (converged)
  State  5: excitation energy =  11.2395 a.u.   (converged)
  State  6: excitation energy =  11.2581 a.u.   (converged)
  State  7: excitation energy =  11.2723 a.u.   (converged)
  State  8: excitation energy =  11.4617 a.u.   (converged)
  State  9: excitation energy =  11.5069 a.u.   (converged)
  State 10: excitation energy =  11.5411 a.u.   (converged)
  State 11: excitation energy =  11.5427 a.u.   (converged)
  State 12: excitation energy =  11.5549 a.u.   (converged)
  State 13: excitation energy =  11.5575 a.u.   (converged)
  State 14: excitation energy =  11.6189 a.u.   (converged)
  State 15: excitation energy =  11.6341 a.u.   (converged)
  State 16: excitation energy =  12.1614 a.u.   (not converged)
  State 17: excitation energy =  12.1626 a.u.   (not converged)
  State 18: excitation energy =  12.1631 a.u.   (not converged)
  State 19: excitation energy =  12.1651 a.u.   (not converged)
 ------------------------------------------------------------


--------------------------------------------------------------------------------
                             Excited State Summary
--------------------------------------------------------------------------------

  Excited state  1 (A)                                             [converged]
  ----------------------------------------------------------------------------
  Term symbol:  2 (-) A                                     R^2 =  5.17021e-14

  Total energy:                                           -425.4555561131 a.u.
  Excitation energy:                                             297.332868 eV

  Osc. strength:                                                      0.000000
  Trans. dip. moment [a.u.]:           [   0.000000,    0.000000,   -0.000000]
  <i|r^2|0> [a.u.]:                    [  -0.000000,    0.000000,    0.000000]

  V1^2 = 0.9571, V2^2 = 0.0429

  Important amplitudes:
     core i     occ j      vir a      vir b          v   
    ------------------------------------------------------
     5 (A) B              22 (A) B                 0.6348
     5 (A) A              22 (A) A                -0.6348
    ------------------------------------------------------
  ----------------------------------------------------------------------------


  Excited state  2 (A)                                             [converged]
  ----------------------------------------------------------------------------
  Term symbol:  3 (-) A                                     R^2 =  5.03477e-14

  Total energy:                                           -425.3811128150 a.u.
  Excitation energy:                                             299.358573 eV

  Osc. strength:                                                      0.116306
  Trans. dip. moment [a.u.]:           [   0.041279,    0.111707,   -0.040935]
  <i|r^2|0> [a.u.]:                    [  -0.101354,    1.072523,    0.006053]

  V1^2 = 0.9513, V2^2 = 0.0487

  Important amplitudes:
     core i     occ j      vir a      vir b          v   
    ------------------------------------------------------
     5 (A) A              22 (A) A                 0.6516
     5 (A) B              22 (A) B                 0.6516
    ------------------------------------------------------
  ----------------------------------------------------------------------------


  Excited state  3 (A)                                             [converged]
  ----------------------------------------------------------------------------
  Term symbol:  4 (-) A                                     R^2 =  7.27512e-14

  Total energy:                                           -425.2242863596 a.u.
  Excitation energy:                                             303.626038 eV

  Osc. strength:                                                      0.000000
  Trans. dip. moment [a.u.]:           [  -0.000000,    0.000000,   -0.000000]
  <i|r^2|0> [a.u.]:                    [   0.000000,   -0.000000,    0.000000]

  V1^2 = 0.9408, V2^2 = 0.0592

  Important amplitudes:
     core i     occ j      vir a      vir b          v   
    ------------------------------------------------------
     5 (A) B              23 (A) B                 0.4724
     5 (A) A              23 (A) A                -0.4724
    ------------------------------------------------------
  ----------------------------------------------------------------------------


  Excited state  4 (A)                                             [converged]
  ----------------------------------------------------------------------------
  Term symbol:  5 (-) A                                     R^2 =  3.41977e-14

  Total energy:                                           -425.2030717654 a.u.
  Excitation energy:                                             304.203317 eV

  Osc. strength:                                                      0.000000
  Trans. dip. moment [a.u.]:           [   0.000000,    0.000000,    0.000000]
  <i|r^2|0> [a.u.]:                    [  -0.000000,    0.000000,   -0.000000]

  V1^2 = 0.9462, V2^2 = 0.0538

  Important amplitudes:
     core i     occ j      vir a      vir b          v   
    ------------------------------------------------------
     5 (A) B              24 (A) B                 0.3946
     5 (A) A              24 (A) A                -0.3946
    ------------------------------------------------------
  ----------------------------------------------------------------------------


  Excited state  5 (A)                                             [converged]
  ----------------------------------------------------------------------------
  Term symbol:  6 (-) A                                     R^2 =  4.41910e-14

  Total energy:                                           -425.1904731968 a.u.
  Excitation energy:                                             304.546141 eV

  Osc. strength:                                                      0.000000
  Trans. dip. moment [a.u.]:           [  -0.000000,    0.000000,    0.000000]
  <i|r^2|0> [a.u.]:                    [   0.000000,    0.000000,   -0.000000]

  V1^2 = 0.9537, V2^2 = 0.0463

  Important amplitudes:
     core i     occ j      vir a      vir b          v   
    ------------------------------------------------------
     5 (A) B              25 (A) B                 0.4776
     5 (A) A              25 (A) A                -0.4776
    ------------------------------------------------------
  ----------------------------------------------------------------------------


  Excited state  6 (A)                                             [converged]
  ----------------------------------------------------------------------------
  Term symbol:  7 (-) A                                     R^2 =  9.51515e-14

  Total energy:                                           -425.1428819143 a.u.
  Excitation energy:                                             305.841166 eV

  Osc. strength:                                                      0.038904
  Trans. dip. moment [a.u.]:           [   0.029273,    0.020769,    0.062481]
  <i|r^2|0> [a.u.]:                    [  -0.088076,    0.175293,   -0.030832]

  V1^2 = 0.9253, V2^2 = 0.0747

  Important amplitudes:
     core i     occ j      vir a      vir b          v   
    ------------------------------------------------------
     5 (A) A              23 (A) A                -0.5424
     5 (A) B              23 (A) B                -0.5424
    ------------------------------------------------------
  ----------------------------------------------------------------------------


  Excited state  7 (A)                                             [converged]
  ----------------------------------------------------------------------------
  Term symbol:  8 (-) A                                     R^2 =  6.22747e-14

  Total energy:                                           -425.1242578836 a.u.
  Excitation energy:                                             306.347951 eV

  Osc. strength:                                                      0.087479
  Trans. dip. moment [a.u.]:           [   0.066289,   -0.000582,    0.085211]
  <i|r^2|0> [a.u.]:                    [  -0.149867,    0.007360,   -0.005642]

  V1^2 = 0.9370, V2^2 = 0.0630

  Important amplitudes:
     core i     occ j      vir a      vir b          v   
    ------------------------------------------------------
     5 (A) B              24 (A) B                 0.4632
     5 (A) A              24 (A) A                 0.4632
    ------------------------------------------------------
  ----------------------------------------------------------------------------


  Excited state  8 (A)                                             [converged]
  ----------------------------------------------------------------------------
  Term symbol:  9 (-) A                                     R^2 =  2.94294e-14

  Total energy:                                           -425.1100481108 a.u.
  Excitation energy:                                             306.734619 eV

  Osc. strength:                                                      0.117437
  Trans. dip. moment [a.u.]:           [   0.095759,   -0.054453,   -0.059097]
  <i|r^2|0> [a.u.]:                    [  -0.234465,   -0.523663,    0.015206]

  V1^2 = 0.9447, V2^2 = 0.0553

  Important amplitudes:
     core i     occ j      vir a      vir b          v   
    ------------------------------------------------------
     5 (A) B              25 (A) B                 0.5308
     5 (A) A              25 (A) A                 0.5308
    ------------------------------------------------------
  ----------------------------------------------------------------------------


  Excited state  9 (A)                                             [converged]
  ----------------------------------------------------------------------------
  Term symbol:  10 (-) A                                    R^2 =  5.04572e-14

  Total energy:                                           -424.9206758948 a.u.
  Excitation energy:                                             311.887699 eV

  Osc. strength:                                                      0.000000
  Trans. dip. moment [a.u.]:           [  -0.000000,    0.000000,    0.000000]
  <i|r^2|0> [a.u.]:                    [   0.000000,    0.000000,    0.000000]

  V1^2 = 0.9071, V2^2 = 0.0929

  Important amplitudes:
     core i     occ j      vir a      vir b          v   
    ------------------------------------------------------
     5 (A) B              26 (A) B                -0.5552
     5 (A) A              26 (A) A                 0.5552
    ------------------------------------------------------
  ----------------------------------------------------------------------------


  Excited state 10 (A)                                             [converged]
  ----------------------------------------------------------------------------
  Term symbol:  11 (-) A                                    R^2 =  5.15682e-14

  Total energy:                                           -424.8754078923 a.u.
  Excitation energy:                                             313.119504 eV

  Osc. strength:                                                      0.020507
  Trans. dip. moment [a.u.]:           [   0.018076,    0.046340,   -0.014109]
  <i|r^2|0> [a.u.]:                    [  -0.023453,    0.465369,    0.023009]

  V1^2 = 0.9111, V2^2 = 0.0889

  Important amplitudes:
     core i     occ j      vir a      vir b          v   
    ------------------------------------------------------
     5 (A) A              26 (A) A                -0.6114
     5 (A) B              26 (A) B                -0.6114
    ------------------------------------------------------
  ----------------------------------------------------------------------------


  Excited state 11 (A)                                             [converged]
  ----------------------------------------------------------------------------
  Term symbol:  12 (-) A                                    R^2 =  7.46079e-14

  Total energy:                                           -424.8412751825 a.u.
  Excitation energy:                                             314.048302 eV

  Osc. strength:                                                      0.000000
  Trans. dip. moment [a.u.]:           [   0.000000,    0.000000,    0.000000]
  <i|r^2|0> [a.u.]:                    [  -0.000000,    0.000000,   -0.000000]

  V1^2 = 0.8869, V2^2 = 0.1131

  Important amplitudes:
     core i     occ j      vir a      vir b          v   
    ------------------------------------------------------
     5 (A) B              27 (A) B                 0.4669
     5 (A) A              27 (A) A                -0.4669
    ------------------------------------------------------
  ----------------------------------------------------------------------------


  Excited state 12 (A)                                             [converged]
  ----------------------------------------------------------------------------
  Term symbol:  13 (-) A                                    R^2 =  6.64058e-14

  Total energy:                                           -424.8396759888 a.u.
  Excitation energy:                                             314.091819 eV

  Osc. strength:                                                      0.000000
  Trans. dip. moment [a.u.]:           [   0.000000,   -0.000000,    0.000000]
  <i|r^2|0> [a.u.]:                    [  -0.000000,   -0.000000,   -0.000000]

  V1^2 = 0.8871, V2^2 = 0.1129

  Important amplitudes:
     core i     occ j      vir a      vir b          v   
    ------------------------------------------------------
     5 (A) B              28 (A) B                 0.4644
     5 (A) A              28 (A) A                -0.4644
    ------------------------------------------------------
  ----------------------------------------------------------------------------


  Excited state 13 (A)                                             [converged]
  ----------------------------------------------------------------------------
  Term symbol:  14 (-) A                                    R^2 =  1.14377e-13

  Total energy:                                           -424.8274657546 a.u.
  Excitation energy:                                             314.424076 eV

  Osc. strength:                                                      0.027468
  Trans. dip. moment [a.u.]:           [   0.025567,    0.009177,    0.053177]
  <i|r^2|0> [a.u.]:                    [  -0.060083,    0.088839,   -0.011775]

  V1^2 = 0.8904, V2^2 = 0.1096

  Important amplitudes:
     core i     occ j      vir a      vir b          v   
    ------------------------------------------------------
     5 (A) A              27 (A) A                 0.5318
     5 (A) B              27 (A) B                 0.5318
    ------------------------------------------------------
  ----------------------------------------------------------------------------


  Excited state 14 (A)                                             [converged]
  ----------------------------------------------------------------------------
  Term symbol:  15 (-) A                                    R^2 =  1.06384e-13

  Total energy:                                           -424.8248713110 a.u.
  Excitation energy:                                             314.494674 eV

  Osc. strength:                                                      0.029968
  Trans. dip. moment [a.u.]:           [  -0.051496,    0.028027,    0.021262]
  <i|r^2|0> [a.u.]:                    [   0.122647,    0.268898,   -0.006807]

  V1^2 = 0.8912, V2^2 = 0.1088

  Important amplitudes:
     core i     occ j      vir a      vir b          v   
    ------------------------------------------------------
     5 (A) A              28 (A) A                -0.5320
     5 (A) B              28 (A) B                -0.5320
    ------------------------------------------------------
  ----------------------------------------------------------------------------


  Excited state 15 (A)                                             [converged]
  ----------------------------------------------------------------------------
  Term symbol:  16 (-) A                                    R^2 =  5.56808e-13

  Total energy:                                           -424.7634629094 a.u.
  Excitation energy:                                             316.165682 eV

  Osc. strength:                                                      0.000000
  Trans. dip. moment [a.u.]:           [   0.000000,    0.000000,    0.000000]
  <i|r^2|0> [a.u.]:                    [  -0.000000,    0.000000,   -0.000000]

  V1^2 = 0.8862, V2^2 = 0.1138

  Important amplitudes:
     core i     occ j      vir a      vir b          v   
    ------------------------------------------------------
     5 (A) B              29 (A) B                 0.6098
     5 (A) A              29 (A) A                -0.6098
    ------------------------------------------------------
  ----------------------------------------------------------------------------


  Excited state 16 (A)                                             [converged]
  ----------------------------------------------------------------------------
  Term symbol:  17 (-) A                                    R^2 =  2.61584e-12

  Total energy:                                           -424.7482361466 a.u.
  Excitation energy:                                             316.580023 eV

  Osc. strength:                                                      0.009833
  Trans. dip. moment [a.u.]:           [  -0.012511,   -0.031771,    0.010094]
  <i|r^2|0> [a.u.]:                    [   0.040232,   -0.292272,    0.008348]

  V1^2 = 0.8884, V2^2 = 0.1116

  Important amplitudes:
     core i     occ j      vir a      vir b          v   
    ------------------------------------------------------
     5 (A) A              29 (A) A                -0.6320
     5 (A) B              29 (A) B                -0.6320
    ------------------------------------------------------
  ----------------------------------------------------------------------------


  Excited state 17 (A)                                         [not converged]
  ----------------------------------------------------------------------------
  Term symbol:  18 (-) A                                    R^2 =  4.60416e-04

  Total energy:                                           -424.2209175176 a.u.
  Excitation energy:                                             330.929093 eV


  V1^2 = 0.8829, V2^2 = 0.1171

  Important amplitudes:
     core i     occ j      vir a      vir b          v   
    ------------------------------------------------------
     5 (A) A              33 (A) A                 0.6290
     5 (A) B              33 (A) B                -0.6288
    ------------------------------------------------------
  ----------------------------------------------------------------------------


  Excited state 18 (A)                                         [not converged]
  ----------------------------------------------------------------------------
  Term symbol:  19 (-) A                                    R^2 =  2.05708e-05

  Total energy:                                           -424.2197553173 a.u.
  Excitation energy:                                             330.960718 eV


  V1^2 = 0.8833, V2^2 = 0.1167

  Important amplitudes:
     core i     occ j      vir a      vir b          v   
    ------------------------------------------------------
     5 (A) A              33 (A) A                 0.6499
     5 (A) B              33 (A) B                 0.6497
    ------------------------------------------------------
  ----------------------------------------------------------------------------


  Excited state 19 (A)                                         [not converged]
  ----------------------------------------------------------------------------
  Term symbol:  20 (-) A                                    R^2 =  2.28512e-03

  Total energy:                                           -424.2192802255 a.u.
  Excitation energy:                                             330.973646 eV


  V1^2 = 0.8759, V2^2 = 0.1241

  Important amplitudes:
     core i     occ j      vir a      vir b          v   
    ------------------------------------------------------
     5 (A) A              34 (A) A                -0.4614
     5 (A) B              34 (A) B                 0.4602
    ------------------------------------------------------
  ----------------------------------------------------------------------------


  Excited state 20 (A)                                         [not converged]
  ----------------------------------------------------------------------------
  Term symbol:  21 (-) A                                    R^2 =  1.16933e-04

  Total energy:                                           -424.2172826568 a.u.
  Excitation energy:                                             331.028003 eV


  V1^2 = 0.8804, V2^2 = 0.1196

  Important amplitudes:
     core i     occ j      vir a      vir b          v   
    ------------------------------------------------------
     5 (A) A              34 (A) A                -0.6230
     5 (A) B              34 (A) B                -0.6137
    ------------------------------------------------------
  ----------------------------------------------------------------------------


--------------------------------------------------------------------------------
  Time of ADC calculation:  CPU 3411.52 s  wall 2110.65 s
================================================================================
 
 --------------------------------------------------------------
 
                    Orbital Energies (a.u.)
 --------------------------------------------------------------
 
 Alpha MOs
 -- Occupied --
-26.422 -26.421 -26.413 -26.241 -11.626  -1.855  -1.753  -1.739
 -1.507  -1.028  -0.935  -0.932  -0.887  -0.780  -0.777  -0.754
 -0.748  -0.717  -0.581  -0.579  -0.579
 -- Virtual --
  0.248   0.387   0.487   0.495   0.656   0.697   0.712   0.727
  1.270   1.272   1.282   1.304   1.306   1.436   1.549   1.555
  1.566   1.568   1.582   1.639   1.708   1.710   1.773   1.897
  1.900   2.016   2.038   2.041   2.065   2.145   2.151   2.238
  2.242   2.301   2.308   2.334   2.381   2.444   2.461   2.484
  2.761   2.971   2.988   3.210   3.242   3.260   3.500   3.508
  3.557   4.364   4.727   5.054   5.105   6.391
 
 Beta MOs
 -- Occupied --
-26.422 -26.421 -26.413 -26.241 -11.626  -1.855  -1.753  -1.739
 -1.507  -1.028  -0.935  -0.932  -0.887  -0.780  -0.777  -0.754
 -0.748  -0.717  -0.581  -0.579  -0.579
 -- Virtual --
  0.248   0.387   0.487   0.495   0.656   0.697   0.712   0.727
  1.270   1.272   1.282   1.304   1.306   1.436   1.549   1.555
  1.566   1.568   1.582   1.639   1.708   1.710   1.773   1.897
  1.900   2.016   2.038   2.041   2.065   2.145   2.151   2.238
  2.242   2.301   2.308   2.334   2.381   2.444   2.461   2.484
  2.761   2.971   2.988   3.210   3.242   3.260   3.500   3.508
  3.557   4.364   4.727   5.054   5.105   6.391
 --------------------------------------------------------------
 
          Ground-State Mulliken Net Atomic Charges

     Atom                 Charge (a.u.)    Spin (a.u.)
  --------------------------------------------------------
      1 C                     1.258756       0.000000
      2 F                    -0.232060       0.000000
      3 F                    -0.226485       0.000000
      4 F                    -0.543488       0.000000
      5 F                    -0.256724       0.000000
  --------------------------------------------------------
  Sum of atomic charges =     0.000000
  Sum of spin   charges =     0.000000

 -----------------------------------------------------------------
                    Cartesian Multipole Moments
 -----------------------------------------------------------------
    Charge (ESU x 10^10)
                 0.0000
    Dipole Moment (Debye)
         X       1.0203      Y       2.5558      Z      -0.8431
       Tot       2.8782
    Quadrupole Moments (Debye-Ang)
        XX     -25.8029     XY      -0.1239     YY     -14.0175
        XZ       0.8295     YZ      -1.2075     ZZ     -24.4772
    Octopole Moments (Debye-Ang^2)
       XXX      52.2562    XXY     -57.7809    XYY      13.6434
       YYY    -137.2059    XXZ      -0.8590    XYZ       0.9099
       YYZ      -2.6409    XZZ      17.6800    YZZ     -57.2015
       ZZZ       0.5160
    Hexadecapole Moments (Debye-Ang^3)
      XXXX    -147.6992   XXXY     117.2165   XXYY    -170.8899
      XYYY     106.1617   YYYY    -778.1076   XXXZ       1.7030
      XXYZ      -0.0229   XYYZ       1.2559   YYYZ      -6.7548
      XXZZ     -38.0363   XYZZ      40.5789   YYZZ    -160.6876
      XZZZ       0.3438   YZZZ       3.9505   ZZZZ     -76.5777
 -----------------------------------------------------------------
Archival summary:
1\1\tp-linux1\SP\HF\6-31G*\41\thomas\ThuMar1619:13:062017ThuMar1619:13:062017\0\\#,HF,6-31G*,\\0,1\C\F,1,1.22883\F,1,1.23352,2,118.153\F,1,1.25411,2,117.062,3,148.725,0\F,1,1.59597,2,98.5821,3,-105.91,0\\HF=-435.578581\\@

 Total job time:  2114.28s(wall), 3421.95s(cpu) 
 Thu Mar 16 19:13:06 2017

        *************************************************************
        *                                                           *
        *  Thank you very much for using Q-Chem.  Have a nice day.  *
        *                                                           *
        *************************************************************


0 sent ACK to 0 
now end server 0 ... 
cleanup process ... done
