
Running Job 1 of 2 ddtraj4t6.inp
qchem ddtraj4t6.inp_31603.0 /scratch/qchem/qchem31603/ 1
/mnt/software/qchem/bin/mpi/mpirun_qchem -machinefile /mnt/software/qchem/bin/mpi/machines -np 1 /mnt/software/qchem/exe/qcprog.exe ddtraj4t6.inp_31603.0 /scratch/qchem/qchem31603/

Process 0 of 1 is on tp-linux1 - thread support 0
initial socket setup ...start
initial socket setup ...done 
now start server 0 ... 

cmd = ssh tp-linux1 /mnt/software/qchem/bin/get_hostid 542919398 > /scratch/qchem/qchem31603/lic.dat
                  Welcome to Q-Chem
     A Quantum Leap Into The Future Of Chemistry


 Q-Chem 4.3, Q-Chem, Inc., Pleasanton, CA (2015)

 Y. Shao,  Z. Gan,  E. Epifanovsky,  A. T. B. Gilbert,  M. Wormit,  
 J. Kussmann,  A. W. Lange,  A. Behn,  J. Deng,  X. Feng,  D. Ghosh,  
 M. Goldey,  P. R. Horn,  L. D. Jacobson,  I. Kaliman,  R. Z. Khaliullin,  
 T. Kus,  A. Landau,  J. Liu,  E. I. Proynov,  Y. M. Rhee,  R. M. Richard,  
 M. A. Rohrdanz,  R. P. Steele,  E. J. Sundstrom,  H. L. Woodcock III,  
 P. M. Zimmerman,  D. Zuev,  B. Albrecht,  E. Alguire,  B. Austin,  
 S. A. Baeppler,  G. J. O. Beran,  Y. A. Bernard,  E. Berquist,  
 K. Brandhorst,  K. B. Bravaya,  S. T. Brown,  D. Casanova,  C.-M. Chang,  
 Y. Chen,  S. H. Chien,  K. D. Closser,  D. L. Crittenden,  M. Diedenhofen,  
 R. A. DiStasio Jr.,  H. Do,  A. D. Dutoi,  R. G. Edgar,  P.-T. Fang,  
 S. Fatehi,  Q. Feng,  L. Fusti-Molnar,  A. Ghysels,  
 A. Golubeva-Zadorozhnaya,  J. Gomes,  A. Gunina,  M. W. D. Hanson-Heine,  
 P. H. P. Harbach,  A. W. Hauser,  E. G. Hohenstein,  Z. C. Holden,  K. Hui,  
 T.-C. Jagau,  H. Ji,  B. Kaduk,  K. Khistyaev,  Jaehoon Kim,  Jihan Kim,  
 R. A. King,  P. Klunzinger,  D. Kosenkov,  T. Kowalczyk,  C. M. Krauter,  
 K. U. Lao,  A. Laurent,  K. V. Lawler,  S. Lehtola,  S. V. Levchenko,  
 C. Y. Lin,  Y.-S. Lin,  F. Liu,  E. Livshits,  R. C. Lochan,  A. Luenser,  
 P. Manohar,  S. F. Manzer,  S.-P. Mao,  N. Mardirossian,  A. V. Marenich,  
 L. A. Martinez-Martinez,  S. A. Maurer,  N. J. Mayhall,  K. Nanda,  
 C. M. Oana,  R. Olivares-Amaya,  D. P. O'Neill,  J. A. Parkhill,  
 T. M. Perrine,  R. Peverati,  P. A. Pieniazek,  F. Plasser,  A. Prociuk,  
 D. R. Rehn,  E. Rosta,  N. J. Russ,  N. Sergueev,  S. M. Sharada,  
 S. Sharma,  D. W. Small,  A. Sodt,  T. Stauch,  T. Stein,  D. Stuck,  
 Y.-C. Su,  A. J. W. Thom,  T. Tsuchimochi,  L. Vogt,  O. Vydrov,  T. Wang,  
 M. A. Watson,  J. Wenzel,  A. White,  C. F. Williams,  V. Vanovschi,  
 S. Yeganeh,  S. R. Yost,  Z.-Q. You,  I. Y. Zhang,  X. Zhang,  Y. Zhao,  
 B. R. Brooks,  G. K. L. Chan,  D. M. Chipman,  C. J. Cramer,  
 W. A. Goddard III,  M. S. Gordon,  W. J. Hehre,  A. Klamt,  
 H. F. Schaefer III,  M. W. Schmidt,  C. D. Sherrill,  D. G. Truhlar,  
 A. Warshel,  X. Xu,  A. Aspuru-Guzik,  R. Baer,  A. T. Bell,  N. A. Besley,  
 J.-D. Chai,  A. Dreuw,  B. D. Dunietz,  T. R. Furlani,  S. R. Gwaltney,  
 C.-P. Hsu,  Y. Jung,  J. Kong,  D. S. Lambrecht,  W. Liang,  C. Ochsenfeld,  
 V. A. Rassolov,  L. V. Slipchenko,  J. E. Subotnik,  T. Van Voorhis,  
 J. M. Herbert,  A. I. Krylov,  P. M. W. Gill,  M. Head-Gordon

 Contributors to earlier versions of Q-Chem not listed above: 
 R. D. Adamson,  J. Baker,  E. F. C. Byrd,  A. K. Chakraborty,  C.-L. Cheng,  
 H. Dachsel,  R. J. Doerksen,  G. Hawkins,  A. Heyden,  S. Hirata,  
 G. Kedziora,  F. J. Keil,  C. Kelley,  P. P. Korambath,  W. Kurlancheek,  
 A. M. Lee,  M. S. Lee,  D. Liotard,  I. Lotan,  P. E. Maslen,  N. Nair,  
 D. Neuhauser,  R. Olson,  B. Peters,  J. Ritchie,  N. E. Schultz,  
 N. Shenvi,  A. C. Simmonett,  K. S. Thanthiriwatte,  Q. Wu,  W. Zhang

 Please cite Q-Chem as follows:
 Y. Shao et al., Mol. Phys. 113, 184-215 (2015)
 DOI: 10.1080/00268976.2014.952696

 Q-Chem 4.3.0 for Intel X86 Linux

 Parts of Q-Chem use Armadillo 5.200.1 (Boston Tea Smuggler).
 http://arma.sourceforge.net/

 Q-Chem begins on Mon Mar 20 11:05:48 2017  

Host: 
0

     Scratch files written to /scratch/qchem/qchem31603//
 Nov1815 1189b_ 19540  19532 5443   
 Parallel job on  1  processors
Processing $rem in /mnt/software/qchem/config/preferences.
 MEM_TOTAL  2000 

Checking the input file for inconsistencies... 	...done.

--------------------------------------------------------------
User input:
--------------------------------------------------------------
$comment
XAS calculation for the 2b valence excited for water using cvs-adc(2)-x + 6-311+G* basis set
job 1 - determination of HF orbitals
$end

$molecule
0 1
6  -0.620645  2.504907  -0.078747
9  0.583187  2.329654  0.007443
9  -1.132505  3.279907  0.782587
9  -1.146066  1.126088  0.447039
9  -1.132149  2.546855  -1.190402
$end

$rem
jobtype      sp
sym_ignore true
exchange     hf
basis        6-31G*
unrestricted true
$end

--------------------------------------------------------------
 ----------------------------------------------------------------
             Standard Nuclear Orientation (Angstroms)
    I     Atom           X                Y                Z
 ----------------------------------------------------------------
    1      C      -0.6206450000     2.5049070000    -0.0787470000
    2      F       0.5831870000     2.3296540000     0.0074430000
    3      F      -1.1325050000     3.2799070000     0.7825870000
    4      F      -1.1460660000     1.1260880000     0.4470390000
    5      F      -1.1321490000     2.5468550000    -1.1904020000
 ----------------------------------------------------------------
 Nuclear Repulsion Energy =   207.9893579245 hartrees
 There are       21 alpha and       21 beta electrons
 Requested basis set is 6-31G(d)
 There are 20 shells and 75 basis functions

 Total QAlloc Memory Limit   2000 MB
 Mega-Array Size        61 MB
 MEM_STATIC part        62 MB

                       Distance Matrix (Angstroms)
             C (  1)   F (  2)   F (  3)   F (  4)
   F (  2)  1.219571
   F (  3)  1.266697  2.108893
   F (  4)  1.566416  2.152239  2.179842
   F (  5)  1.224407  2.103423  2.104769  2.167945
 
 tim1(1): 
  0.000000000000000E+000
 tim1(2): 
  0.000000000000000E+000
 A cutoff of  1.0D-08 yielded    199 shell pairs
 There are      2962 function pairs
 
 -------------------------------------------------------
 OpenMP Integral Computing Module                       
 Release: version 1.0, May 2013, Q-Chem Inc. Pittsburgh 
 -------------------------------------------------------
 Integral Job Info:
 Integral job number is                      11
 Integral operator is                         1
 short-range coefficients                     0
 long-range coefficients              100000000
 Omega coefficients                           0
 if combine SR and LR in K                    0
 Integral screening is                        0
 Integral computing path is                   2
 max size of driver memory is            800000
 size of driver memory is                593474
 size of scratch memory is              2260544
 max col of scratch BK array               1296
 max len of scratch array in speh3          155
 max len of scratch index in speh4           18
 max int batch size is                      520
 min int batch size is                       52
 fixed nKL is                                52
 max L of basis functions is                  2
 order of int derivative is                   0
 number of shells is                         20
 number of basis is                          75
 number of cartesian basis is                75
 number of contracted shell pairs           199
 number of primitive shell pairs            986
 maxK2 (contraction) of shell pair           36
 max number of K2 of shell pair               1
 max number of CS2 of shell pair             28
 max number of PS2 of shell pair            180
 mem total for path MDJ                   21832
 -------------------------------------------------------
 Smallest overlap matrix eigenvalue = 1.68E-03

 Scale SEOQF with 1.000000e+00/1.000000e-01/1.000000e+00

 Standard Electronic Orientation quadrupole field applied
 Nucleus-field energy     =     0.0000000109 hartrees
 Guess from superposition of atomic densities
 Warning:  Energy on first SCF cycle will be non-variational
 An unrestricted Hartree-Fock SCF calculation will be
 performed using Pulay DIIS extrapolation
 SCF converges when DIIS error is below 1.0E-05
 using 8 threads for integral computing 
 ---------------------------------------
  Cycle       Energy         DIIS Error
 ---------------------------------------
    1    -436.6692787332      9.26E-02
    2    -435.4091339519      1.80E-02
    3    -435.5351607855      1.08E-02
    4    -435.5859454936      1.06E-03
    5    -435.5867669529      3.82E-04
    6    -435.5868956190      1.00E-04
    7    -435.5869053065      4.25E-05
    8    -435.5869070304      6.81E-06 Convergence criterion met
 ---------------------------------------
 <S^2> = 0.0000
 SCF time:  CPU 8.76 s  wall 1.95 s
 SCF   energy in the final basis set = -435.5869070304
 Total energy in the final basis set = -435.5869070304
 
 --------------------------------------------------------------
 
                    Orbital Energies (a.u.)
 --------------------------------------------------------------
 
 Alpha MOs
 -- Occupied --
-26.421 -26.420 -26.401 -26.254 -11.620  -1.857  -1.757  -1.727
 -1.523  -1.026  -0.936  -0.928  -0.889  -0.781  -0.773  -0.753
 -0.740  -0.711  -0.595  -0.591  -0.590
 -- Virtual --
  0.272   0.396   0.481   0.503   0.659   0.695   0.722   0.724
  1.269   1.271   1.291   1.303   1.305   1.432   1.549   1.562
  1.565   1.575   1.591   1.653   1.702   1.703   1.766   1.889
  1.897   2.033   2.042   2.056   2.070   2.140   2.150   2.250
  2.269   2.291   2.307   2.356   2.374   2.437   2.450   2.512
  2.766   2.967   3.018   3.208   3.263   3.267   3.496   3.510
  3.557   4.389   4.729   4.989   5.115   6.375
 
 Beta MOs
 -- Occupied --
-26.421 -26.420 -26.401 -26.254 -11.620  -1.857  -1.757  -1.727
 -1.523  -1.026  -0.936  -0.928  -0.889  -0.781  -0.773  -0.753
 -0.740  -0.711  -0.595  -0.591  -0.590
 -- Virtual --
  0.272   0.396   0.481   0.503   0.659   0.695   0.722   0.724
  1.269   1.271   1.291   1.303   1.305   1.432   1.549   1.562
  1.565   1.575   1.591   1.653   1.702   1.703   1.766   1.889
  1.897   2.033   2.042   2.056   2.070   2.140   2.150   2.250
  2.269   2.291   2.307   2.356   2.374   2.437   2.450   2.512
  2.766   2.967   3.018   3.208   3.263   3.267   3.496   3.510
  3.557   4.389   4.729   4.989   5.115   6.375
 --------------------------------------------------------------
 
          Ground-State Mulliken Net Atomic Charges

     Atom                 Charge (a.u.)    Spin (a.u.)
  --------------------------------------------------------
      1 C                     1.251143       0.000000
      2 F                    -0.219845       0.000000
      3 F                    -0.277578       0.000000
      4 F                    -0.527506       0.000000
      5 F                    -0.226215       0.000000
  --------------------------------------------------------
  Sum of atomic charges =     0.000000
  Sum of spin   charges =     0.000000

 -----------------------------------------------------------------
                    Cartesian Multipole Moments
 -----------------------------------------------------------------
    Charge (ESU x 10^10)
                 0.0000
    Dipole Moment (Debye)
         X       1.0047      Y       2.1439      Z      -1.0479
       Tot       2.5892
    Quadrupole Moments (Debye-Ang)
        XX     -25.7072     XY       0.2636     YY     -16.0440
        XZ       1.0181     YZ      -1.9086     ZZ     -24.3968
    Octopole Moments (Debye-Ang^2)
       XXX      51.8560    XXY     -57.9568    XYY      15.4710
       YYY    -144.8960    XXZ      -1.1332    XYZ       1.6248
       YYZ      -4.9015    XZZ      17.5411    YZZ     -57.0634
       ZZZ       0.0522
    Hexadecapole Moments (Debye-Ang^3)
      XXXX    -145.3897   XXXY     117.2712   XXYY    -172.0107
      XYYY     113.2088   YYYY    -805.7351   XXXZ       2.1054
      XXYZ      -1.2066   XYYZ       3.6151   YYYZ     -14.4819
      XXZZ     -37.3593   XYZZ      40.4816   YYZZ    -160.3503
      XZZZ       0.6976   YZZZ       2.0814   ZZZZ     -74.9096
 -----------------------------------------------------------------
Archival summary:
1\1\tp-linux1\SP\HF\6-31G*\41\thomas\MonMar2011:05:502017MonMar2011:05:502017\0\\#,HF,6-31G*,\\0,1\C\F,1,1.21957\F,1,1.22441,2,118.78\F,1,1.2667,2,116.023,3,144.203,0\F,1,1.56642,2,100.421,3,-109.086,0\\HF=-435.586907\\@

 Total job time:  2.27s(wall), 10.48s(cpu) 
 Mon Mar 20 11:05:50 2017

        *************************************************************
        *                                                           *
        *  Thank you very much for using Q-Chem.  Have a nice day.  *
        *                                                           *
        *************************************************************


0 sent ACK to 0 
now end server 0 ... 
cleanup process ... done

Running Job 2 of 2 ddtraj4t6.inp
qchem ddtraj4t6.inp_31603.1 /scratch/qchem/qchem31603/ 1
/mnt/software/qchem/bin/mpi/mpirun_qchem -machinefile /mnt/software/qchem/bin/mpi/machines -np 1 /mnt/software/qchem/exe/qcprog.exe ddtraj4t6.inp_31603.1 /scratch/qchem/qchem31603/

Process 0 of 1 is on tp-linux1 - thread support 0
initial socket setup ...start
initial socket setup ...done 
now start server 0 ... 

cmd = ssh tp-linux1 /mnt/software/qchem/bin/get_hostid 1162408693 > /scratch/qchem/qchem31603/lic.dat
                  Welcome to Q-Chem
     A Quantum Leap Into The Future Of Chemistry


 Q-Chem 4.3, Q-Chem, Inc., Pleasanton, CA (2015)

 Y. Shao,  Z. Gan,  E. Epifanovsky,  A. T. B. Gilbert,  M. Wormit,  
 J. Kussmann,  A. W. Lange,  A. Behn,  J. Deng,  X. Feng,  D. Ghosh,  
 M. Goldey,  P. R. Horn,  L. D. Jacobson,  I. Kaliman,  R. Z. Khaliullin,  
 T. Kus,  A. Landau,  J. Liu,  E. I. Proynov,  Y. M. Rhee,  R. M. Richard,  
 M. A. Rohrdanz,  R. P. Steele,  E. J. Sundstrom,  H. L. Woodcock III,  
 P. M. Zimmerman,  D. Zuev,  B. Albrecht,  E. Alguire,  B. Austin,  
 S. A. Baeppler,  G. J. O. Beran,  Y. A. Bernard,  E. Berquist,  
 K. Brandhorst,  K. B. Bravaya,  S. T. Brown,  D. Casanova,  C.-M. Chang,  
 Y. Chen,  S. H. Chien,  K. D. Closser,  D. L. Crittenden,  M. Diedenhofen,  
 R. A. DiStasio Jr.,  H. Do,  A. D. Dutoi,  R. G. Edgar,  P.-T. Fang,  
 S. Fatehi,  Q. Feng,  L. Fusti-Molnar,  A. Ghysels,  
 A. Golubeva-Zadorozhnaya,  J. Gomes,  A. Gunina,  M. W. D. Hanson-Heine,  
 P. H. P. Harbach,  A. W. Hauser,  E. G. Hohenstein,  Z. C. Holden,  K. Hui,  
 T.-C. Jagau,  H. Ji,  B. Kaduk,  K. Khistyaev,  Jaehoon Kim,  Jihan Kim,  
 R. A. King,  P. Klunzinger,  D. Kosenkov,  T. Kowalczyk,  C. M. Krauter,  
 K. U. Lao,  A. Laurent,  K. V. Lawler,  S. Lehtola,  S. V. Levchenko,  
 C. Y. Lin,  Y.-S. Lin,  F. Liu,  E. Livshits,  R. C. Lochan,  A. Luenser,  
 P. Manohar,  S. F. Manzer,  S.-P. Mao,  N. Mardirossian,  A. V. Marenich,  
 L. A. Martinez-Martinez,  S. A. Maurer,  N. J. Mayhall,  K. Nanda,  
 C. M. Oana,  R. Olivares-Amaya,  D. P. O'Neill,  J. A. Parkhill,  
 T. M. Perrine,  R. Peverati,  P. A. Pieniazek,  F. Plasser,  A. Prociuk,  
 D. R. Rehn,  E. Rosta,  N. J. Russ,  N. Sergueev,  S. M. Sharada,  
 S. Sharma,  D. W. Small,  A. Sodt,  T. Stauch,  T. Stein,  D. Stuck,  
 Y.-C. Su,  A. J. W. Thom,  T. Tsuchimochi,  L. Vogt,  O. Vydrov,  T. Wang,  
 M. A. Watson,  J. Wenzel,  A. White,  C. F. Williams,  V. Vanovschi,  
 S. Yeganeh,  S. R. Yost,  Z.-Q. You,  I. Y. Zhang,  X. Zhang,  Y. Zhao,  
 B. R. Brooks,  G. K. L. Chan,  D. M. Chipman,  C. J. Cramer,  
 W. A. Goddard III,  M. S. Gordon,  W. J. Hehre,  A. Klamt,  
 H. F. Schaefer III,  M. W. Schmidt,  C. D. Sherrill,  D. G. Truhlar,  
 A. Warshel,  X. Xu,  A. Aspuru-Guzik,  R. Baer,  A. T. Bell,  N. A. Besley,  
 J.-D. Chai,  A. Dreuw,  B. D. Dunietz,  T. R. Furlani,  S. R. Gwaltney,  
 C.-P. Hsu,  Y. Jung,  J. Kong,  D. S. Lambrecht,  W. Liang,  C. Ochsenfeld,  
 V. A. Rassolov,  L. V. Slipchenko,  J. E. Subotnik,  T. Van Voorhis,  
 J. M. Herbert,  A. I. Krylov,  P. M. W. Gill,  M. Head-Gordon

 Contributors to earlier versions of Q-Chem not listed above: 
 R. D. Adamson,  J. Baker,  E. F. C. Byrd,  A. K. Chakraborty,  C.-L. Cheng,  
 H. Dachsel,  R. J. Doerksen,  G. Hawkins,  A. Heyden,  S. Hirata,  
 G. Kedziora,  F. J. Keil,  C. Kelley,  P. P. Korambath,  W. Kurlancheek,  
 A. M. Lee,  M. S. Lee,  D. Liotard,  I. Lotan,  P. E. Maslen,  N. Nair,  
 D. Neuhauser,  R. Olson,  B. Peters,  J. Ritchie,  N. E. Schultz,  
 N. Shenvi,  A. C. Simmonett,  K. S. Thanthiriwatte,  Q. Wu,  W. Zhang

 Please cite Q-Chem as follows:
 Y. Shao et al., Mol. Phys. 113, 184-215 (2015)
 DOI: 10.1080/00268976.2014.952696

 Q-Chem 4.3.0 for Intel X86 Linux

 Parts of Q-Chem use Armadillo 5.200.1 (Boston Tea Smuggler).
 http://arma.sourceforge.net/

 Q-Chem begins on Mon Mar 20 11:05:53 2017  

Host: 
0

     Scratch files written to /scratch/qchem/qchem31603//
 Nov1815 1189b_ 19540  19532 5443   
 Parallel job on  1  processors
Processing $rem in /mnt/software/qchem/config/preferences.
 MEM_TOTAL  2000 

Checking the input file for inconsistencies... 	...done.

--------------------------------------------------------------
User input:
--------------------------------------------------------------

$comment
job3 - cvs-adc(2) calculation
$end

$molecule
read
$end

$rem
mem_total 3000
mem_static 1500
sym_ignore true
scf_guess read
method cvs-adc(2)
basis 6-31G*
ee_singlets 20
cc_rest_occ 5                  !only excitations from the lowest N orbitals
unrestricted  true
max_scf_cycles 200
$end
--------------------------------------------------------------
 ----------------------------------------------------------------
             Standard Nuclear Orientation (Angstroms)
    I     Atom           X                Y                Z
 ----------------------------------------------------------------
    1      C      -0.6206450000     2.5049070000    -0.0787470000
    2      F       0.5831870000     2.3296540000     0.0074430000
    3      F      -1.1325050000     3.2799070000     0.7825870000
    4      F      -1.1460660000     1.1260880000     0.4470390000
    5      F      -1.1321490000     2.5468550000    -1.1904020000
 ----------------------------------------------------------------
 Nuclear Repulsion Energy =   207.9893579245 hartrees
 There are       21 alpha and       21 beta electrons
 Requested basis set is 6-31G(d)
 There are 20 shells and 75 basis functions

 Total QAlloc Memory Limit   3000 MB
 Mega-Array Size      1467 MB
 MEM_STATIC part      1500 MB

                       Distance Matrix (Angstroms)
             C (  1)   F (  2)   F (  3)   F (  4)
   F (  2)  1.219571
   F (  3)  1.266697  2.108893
   F (  4)  1.566416  2.152239  2.179842
   F (  5)  1.224407  2.103423  2.104769  2.167945
 
 tim1(1): 
  0.000000000000000E+000
 tim1(2): 
  0.000000000000000E+000
 A cutoff of  1.0D-11 yielded    204 shell pairs
 There are      2979 function pairs
 
 -------------------------------------------------------
 OpenMP Integral Computing Module                       
 Release: version 1.0, May 2013, Q-Chem Inc. Pittsburgh 
 -------------------------------------------------------
 Integral Job Info:
 Integral job number is                      11
 Integral operator is                         1
 short-range coefficients                     0
 long-range coefficients              100000000
 Omega coefficients                           0
 if combine SR and LR in K                    0
 Integral screening is                        0
 Integral computing path is                   2
 max size of driver memory is            800000
 size of driver memory is                593474
 size of scratch memory is              2260544
 max col of scratch BK array               1296
 max len of scratch array in speh3          155
 max len of scratch index in speh4           18
 max int batch size is                      520
 min int batch size is                       52
 fixed nKL is                                52
 max L of basis functions is                  2
 order of int derivative is                   0
 number of shells is                         20
 number of basis is                          75
 number of cartesian basis is                75
 number of contracted shell pairs           204
 number of primitive shell pairs           1073
 maxK2 (contraction) of shell pair           36
 max number of K2 of shell pair               1
 max number of CS2 of shell pair             37
 max number of PS2 of shell pair            222
 mem total for path MDJ                   21832
 -------------------------------------------------------
 Smallest overlap matrix eigenvalue = 1.68E-03

 Scale SEOQF with 1.000000e+00/1.000000e-01/1.000000e+00

 Standard Electronic Orientation quadrupole field applied
 Nucleus-field energy     =     0.0000000109 hartrees
 Guess MOs from SCF MO coefficient file
 Reading MOs from coefficient file
 Reading MOs from coefficient file
 An unrestricted Hartree-Fock SCF calculation will be
 performed using Pulay DIIS extrapolation
 SCF converges when DIIS error is below 1.0E-08
 using 8 threads for integral computing 
 ---------------------------------------
  Cycle       Energy         DIIS Error
 ---------------------------------------
    1    -435.5869071404      1.85E-06
    2    -435.5869071437      7.93E-07
    3    -435.5869071446      4.74E-07
    4    -435.5869071448      4.94E-08
    5    -435.5869071448      1.89E-08
    6    -435.5869071448      6.05E-09 Convergence criterion met
 ---------------------------------------
 <S^2> = 0.0000
 SCF time:  CPU 6.55 s  wall 1.60 s
 SCF   energy in the final basis set = -435.5869071448
 Total energy in the final basis set = -435.5869071448
================================================================================
|                                                                              |
|                                 A D C  M A N                                 |
|                                                                              |
 ------------------------------------------------------------------------------ 
|                                                                              |
| Components:                                                                  |
|                                                                              |
| - libvmm - 1.2-release                                                       |
|   Authors:                                                                   |
|   Evgeny Epifanovsky, Ilya Kaliman                                           |
|                                                                              |
| - libtensor - 2.4-trunk                                                      |
|   Authors:                                                                   |
|   Evgeny Epifanovsky, Michael Wormit, Dmitry Zuev, Sam Manzer                |
|                                                                              |
| - libwfa - 1.1-beta                                                          |
|   Authors:                                                                   |
|   Felix Plasser, Stefanie Baeppler, Benjamin Thomitzni, Michael Wormit       |
|                                                                              |
| - libadc - 1.0-beta                                                          |
|   Authors:                                                                   |
|   Michael Wormit, Philipp H. P. Harbach, Caroline Krauter, Dirk Rehn,        |
|   Matthias Schneider, Jan Wenzel                                             |
|                                                                              |
| - adcman - 2.4-beta                                                          |
|   Authors:                                                                   |
|   Michael Wormit, Philipp H. P. Harbach, Caroline Krauter, Dirk Rehn,        |
|   Jan Wenzel, Andreas Dreuw                                                  |
|                                                                              |
| Authors of earlier versions of ADCMAN:                                       |
| Andreas Dreuw, Jan Hendrik Starcke, Dirk Rehn, Michael Wormit                |
|                                                                              |
================================================================================

 
 Alpha MOs, Unrestricted
 -- Occupied --                  
-26.421 -26.420 -26.401 -26.254 -11.620  -1.857  -1.757  -1.727
  1 A     2 A     3 A     4 A     5 A     6 A     7 A     8 A                  
 -1.523  -1.026  -0.936  -0.928  -0.889  -0.781  -0.773  -0.753
  9 A    10 A    11 A    12 A    13 A    14 A    15 A    16 A                  
 -0.740  -0.711  -0.595  -0.591  -0.590
 17 A    18 A    19 A    20 A    21 A                                          
 -- Virtual --                   
  0.272   0.396   0.481   0.503   0.659   0.695   0.722   0.724
 22 A    23 A    24 A    25 A    26 A    27 A    28 A    29 A                  
  1.269   1.271   1.291   1.303   1.305   1.432   1.549   1.562
 30 A    31 A    32 A    33 A    34 A    35 A    36 A    37 A                  
  1.565   1.575   1.591   1.653   1.702   1.703   1.766   1.889
 38 A    39 A    40 A    41 A    42 A    43 A    44 A    45 A                  
  1.897   2.033   2.042   2.056   2.070   2.140   2.150   2.250
 46 A    47 A    48 A    49 A    50 A    51 A    52 A    53 A                  
  2.269   2.291   2.307   2.356   2.374   2.437   2.450   2.512
 54 A    55 A    56 A    57 A    58 A    59 A    60 A    61 A                  
  2.766   2.967   3.018   3.208   3.263   3.267   3.496   3.510
 62 A    63 A    64 A    65 A    66 A    67 A    68 A    69 A                  
  3.557   4.389   4.729   4.989   5.115   6.375
 70 A    71 A    72 A    73 A    74 A    75 A                                  
 
 Beta MOs, Unrestricted
 -- Occupied --                  
-26.421 -26.420 -26.401 -26.254 -11.620  -1.857  -1.757  -1.727
  1 A     2 A     3 A     4 A     5 A     6 A     7 A     8 A                  
 -1.523  -1.026  -0.936  -0.928  -0.889  -0.781  -0.773  -0.753
  9 A    10 A    11 A    12 A    13 A    14 A    15 A    16 A                  
 -0.740  -0.711  -0.595  -0.591  -0.590
 17 A    18 A    19 A    20 A    21 A                                          
 -- Virtual --                   
  0.272   0.396   0.481   0.503   0.659   0.695   0.722   0.724
 22 A    23 A    24 A    25 A    26 A    27 A    28 A    29 A                  
  1.269   1.271   1.291   1.303   1.305   1.432   1.549   1.562
 30 A    31 A    32 A    33 A    34 A    35 A    36 A    37 A                  
  1.565   1.575   1.591   1.653   1.702   1.703   1.766   1.889
 38 A    39 A    40 A    41 A    42 A    43 A    44 A    45 A                  
  1.897   2.033   2.042   2.056   2.070   2.140   2.150   2.250
 46 A    47 A    48 A    49 A    50 A    51 A    52 A    53 A                  
  2.269   2.291   2.307   2.356   2.374   2.437   2.450   2.512
 54 A    55 A    56 A    57 A    58 A    59 A    60 A    61 A                  
  2.766   2.967   3.018   3.208   3.263   3.267   3.496   3.510
 62 A    63 A    64 A    65 A    66 A    67 A    68 A    69 A                  
  3.557   4.389   4.729   4.989   5.115   6.375
 70 A    71 A    72 A    73 A    74 A    75 A                                  
 

--------------------------------------------------------------------------------
                                   HF Summary                                   
--------------------------------------------------------------------------------
  Energy:                                                 -435.5869071448 a.u.
  Dip. moment [a.u.]:                  [ -55.521705,  185.430656,    0.313081]
  Total dipole [Debye]:                                             491.992439
  <r^2> [a.u.]:                        [ 162.927760,  915.779607,   89.923349]
  Total <r^2> [a.u.]:                                              1168.630717
--------------------------------------------------------------------------------

--------------------------------------------------------------------------------
                                 MP(2) Summary                                  
--------------------------------------------------------------------------------
  Energy contribution:                                      -0.8017314817 a.u.
  Total energy:                                           -436.3886386265 a.u.
  Dip. moment [a.u.]:                  [ -55.477438,  185.530649,    0.267115]
  Total dipole [Debye]:                                             492.203499
  <r^2> [a.u.]:                        [ 162.747873,  916.515519,   89.856880]
  Total <r^2> [a.u.]:                                              1169.120272
--------------------------------------------------------------------------------
  Starting Davidson ... 
--------------------------------------------------------------------------------
   It NVec Conv  Avg. Norm  Max. Norm  Conv. states           Remark
--------------------------------------------------------------------------------
        20    0  2.107e-01  1.041e+00 11.1157 n n n n n n n n Guess.
    1   40    0  3.729e-02  3.535e-01 10.9403 n n n n n n n n 
    2   60    0  6.906e-03  5.759e-02 10.9386 n n n n n n n n 
    3   80    0  2.367e-03  2.426e-02 10.9386 n n n n n n n n 
    4  100    0  1.447e-03  1.609e-02 10.9386 n n n n n n n n 
    5   40    0  8.911e-04  1.033e-02 10.9386 n n n n n n n n Subspace collapsed.
    6   60    0  7.381e-04  8.889e-03 10.9386 n n n n n n n n 
    7   80    0  8.256e-04  1.152e-02 10.9386 n n n n n n n n 
    8  100    2  1.012e-03  1.570e-02 10.9386 y y n n n n n n 
    9   40    6  4.029e-04  6.230e-03 10.9386 y y y n y y n y Subspace collapsed.
   10   60    7  2.935e-04  4.471e-03 10.9386 y y y y y y n y 
   11   80   10  2.742e-04  4.300e-03 10.9386 y y y y y y y y 
   12  100   14  2.675e-04  3.780e-03 10.9386 y y y y y y y y 
   13   40   16  2.197e-04  3.499e-03 10.9386 y y y y y y y y Subspace collapsed.
   14   60   16  2.062e-04  2.897e-03 10.9386 y y y y y y y y 
   15   80   16  2.448e-04  3.810e-03 10.9386 y y y y y y y y 
   16  100   16  3.640e-04  5.409e-03 10.9386 y y y y y y y y 
   17   40   16  1.811e-04  2.611e-03 10.9386 y y y y y y y y Subspace collapsed.
   18   58   16  1.596e-04  2.344e-03 10.9386 y y y y y y y y 
   19   60   16  1.601e-04  2.354e-03 10.9386 y y y y y y y y 
   20   61   16  1.594e-04  2.336e-03 10.9386 y y y y y y y y 
   21   61   16  1.594e-04  2.336e-03 10.9386 y y y y y y y y 
   22   81   16  1.417e-04  1.944e-03 10.9386 y y y y y y y y 
   23   94   16  1.535e-04  1.937e-03 10.9386 y y y y y y y y 
   24  100   16  1.566e-04  1.938e-03 10.9386 y y y y y y y y 
   25   33   16  1.258e-04  1.769e-03 10.9386 y y y y y y y y Subspace collapsed.
   26   45   16  1.344e-04  1.834e-03 10.9386 y y y y y y y y 
   27   45   16  1.344e-04  1.834e-03 10.9386 y y y y y y y y 
   28   46   16  1.341e-04  1.826e-03 10.9386 y y y y y y y y 
   29   46   16  1.341e-04  1.826e-03 10.9386 y y y y y y y y 
   30   46   16  1.341e-04  1.826e-03 10.9386 y y y y y y y y 
   31   66   16  1.237e-04  1.658e-03 10.9386 y y y y y y y y 
   32   66   16  1.237e-04  1.658e-03 10.9386 y y y y y y y y 
   33   68   16  1.244e-04  1.666e-03 10.9386 y y y y y y y y 
   34   68   16  1.244e-04  1.666e-03 10.9386 y y y y y y y y 
   35   68   16  1.244e-04  1.666e-03 10.9386 y y y y y y y y 
   36   70   16  1.250e-04  1.672e-03 10.9386 y y y y y y y y 
   37   70   16  1.250e-04  1.672e-03 10.9386 y y y y y y y y 
   38   70   16  1.250e-04  1.672e-03 10.9386 y y y y y y y y 
   39   71   16  1.254e-04  1.686e-03 10.9386 y y y y y y y y 
   40   71   16  1.254e-04  1.686e-03 10.9386 y y y y y y y y 
   41   72   16  1.252e-04  1.680e-03 10.9386 y y y y y y y y 
   42   72   16  1.252e-04  1.680e-03 10.9386 y y y y y y y y 
   43   73   16  1.255e-04  1.691e-03 10.9386 y y y y y y y y 
   44   74   16  1.258e-04  1.691e-03 10.9386 y y y y y y y y 
   45   75   16  1.262e-04  1.692e-03 10.9386 y y y y y y y y 
   46   77   16  1.260e-04  1.678e-03 10.9386 y y y y y y y y 
   47   80   16  1.272e-04  1.666e-03 10.9386 y y y y y y y y 
   48   83   10  1.309e-04  1.732e-03 10.9386 n n n n y y y y 
   49   87    0  1.319e-04  1.736e-03 10.9386 n n n n n n n n 
   50   94    0  4.941e-04  6.239e-03 10.9386 n n n n n n n n 
   51  100    0  1.645e-02  2.287e-01 10.9300 n n n n n n n n 
   52   40    0  2.120e-03  2.668e-02 10.9387 n n n n n n n n Subspace collapsed.
   53   60    0  5.037e-04  5.588e-03 10.9386 n n n n n n n n 
   54   80    0  1.712e-04  1.680e-03 10.9386 n n n n n n n n 
   55  100    0  3.832e-04  4.553e-03 10.9386 n n n n n n n n 
   56   40    0  1.290e-04  1.739e-03 10.9386 n n n n n n n n Subspace collapsed.
   57   60    0  1.129e-04  1.566e-03 10.9386 n n n n n n n n 
   58   80    1  8.347e-05  1.143e-03 10.9386 n n n n n n n y 
   59  100   10  1.244e-04  1.708e-03 10.9386 n n n y y y y y 
--------------------------------------------------------------------------------
  Davidson Summary: 
 ------------------------------------------------------------
  State  0: excitation energy =  10.9386 a.u.   (not converged)
  State  1: excitation energy =  11.0145 a.u.   (not converged)
  State  2: excitation energy =  11.1480 a.u.   (not converged)
  State  3: excitation energy =  11.1861 a.u.   (converged)
  State  4: excitation energy =  11.2016 a.u.   (converged)
  State  5: excitation energy =  11.2316 a.u.   (converged)
  State  6: excitation energy =  11.2615 a.u.   (converged)
  State  7: excitation energy =  11.2820 a.u.   (converged)
  State  8: excitation energy =  11.4634 a.u.   (not converged)
  State  9: excitation energy =  11.5082 a.u.   (converged)
  State 10: excitation energy =  11.5353 a.u.   (converged)
  State 11: excitation energy =  11.5413 a.u.   (converged)
  State 12: excitation energy =  11.5493 a.u.   (converged)
  State 13: excitation energy =  11.5566 a.u.   (converged)
  State 14: excitation energy =  11.6062 a.u.   (not converged)
  State 15: excitation energy =  11.6215 a.u.   (not converged)
  State 16: excitation energy =  12.1547 a.u.   (not converged)
  State 17: excitation energy =  12.1559 a.u.   (not converged)
  State 18: excitation energy =  12.1597 a.u.   (not converged)
  State 19: excitation energy =  12.1605 a.u.   (not converged)
 ------------------------------------------------------------


--------------------------------------------------------------------------------
                             Excited State Summary
--------------------------------------------------------------------------------

  Excited state  1 (A)                                         [not converged]
  ----------------------------------------------------------------------------
  Term symbol:  2 (-) A                                     R^2 =  1.27904e-06

  Total energy:                                           -425.4500779973 a.u.
  Excitation energy:                                             297.653373 eV


  V1^2 = 0.9572, V2^2 = 0.0428

  Important amplitudes:
     core i     occ j      vir a      vir b          v   
    ------------------------------------------------------
     5 (A) A              22 (A) A                -0.6368
     5 (A) B              22 (A) B                 0.6368
    ------------------------------------------------------
  ----------------------------------------------------------------------------


  Excited state  2 (A)                                         [not converged]
  ----------------------------------------------------------------------------
  Term symbol:  3 (-) A                                     R^2 =  1.85479e-06

  Total energy:                                           -425.3741152917 a.u.
  Excitation energy:                                             299.720423 eV


  V1^2 = 0.9514, V2^2 = 0.0486

  Important amplitudes:
     core i     occ j      vir a      vir b          v   
    ------------------------------------------------------
     5 (A) A              22 (A) A                -0.6529
     5 (A) B              22 (A) B                -0.6529
    ------------------------------------------------------
  ----------------------------------------------------------------------------


  Excited state  3 (A)                                         [not converged]
  ----------------------------------------------------------------------------
  Term symbol:  4 (-) A                                     R^2 =  3.87589e-06

  Total energy:                                           -425.2406105638 a.u.
  Excitation energy:                                             303.353271 eV


  V1^2 = 0.9505, V2^2 = 0.0495

  Important amplitudes:
     core i     occ j      vir a      vir b          v   
    ------------------------------------------------------
     5 (A) B              24 (A) B                -0.4620
     5 (A) A              24 (A) A                 0.4620
    ------------------------------------------------------
  ----------------------------------------------------------------------------


  Excited state  4 (A)                                             [converged]
  ----------------------------------------------------------------------------
  Term symbol:  5 (-) A                                     R^2 =  5.85910e-07

  Total energy:                                           -425.2025294915 a.u.
  Excitation energy:                                             304.389510 eV

  Osc. strength:                                                      0.000000
  Trans. dip. moment [a.u.]:           [   0.000000,   -0.000000,   -0.000000]
  <i|r^2|0> [a.u.]:                    [  -0.000000,   -0.000000,    0.000000]

  V1^2 = 0.9366, V2^2 = 0.0634

  Important amplitudes:
     core i     occ j      vir a      vir b          v   
    ------------------------------------------------------
     5 (A) A              23 (A) A                 0.4859
     5 (A) B              23 (A) B                -0.4859
    ------------------------------------------------------
  ----------------------------------------------------------------------------


  Excited state  5 (A)                                             [converged]
  ----------------------------------------------------------------------------
  Term symbol:  6 (-) A                                     R^2 =  3.96165e-07

  Total energy:                                           -425.1869911128 a.u.
  Excitation energy:                                             304.812331 eV

  Osc. strength:                                                      0.000000
  Trans. dip. moment [a.u.]:           [  -0.000000,   -0.000000,   -0.000000]
  <i|r^2|0> [a.u.]:                    [   0.000000,   -0.000000,    0.000000]

  V1^2 = 0.9542, V2^2 = 0.0458

  Important amplitudes:
     core i     occ j      vir a      vir b          v   
    ------------------------------------------------------
     5 (A) B              25 (A) B                 0.4787
     5 (A) A              25 (A) A                -0.4787
    ------------------------------------------------------
  ----------------------------------------------------------------------------


  Excited state  6 (A)                                             [converged]
  ----------------------------------------------------------------------------
  Term symbol:  7 (-) A                                     R^2 =  5.56051e-07

  Total energy:                                           -425.1570182193 a.u.
  Excitation energy:                                             305.627935 eV

  Osc. strength:                                                      0.097702
  Trans. dip. moment [a.u.]:           [  -0.050990,    0.049721,    0.089309]
  <i|r^2|0> [a.u.]:                    [   0.133421,    0.481197,   -0.015763]

  V1^2 = 0.9414, V2^2 = 0.0586

  Important amplitudes:
     core i     occ j      vir a      vir b          v   
    ------------------------------------------------------
     5 (A) A              24 (A) A                 0.4987
     5 (A) B              24 (A) B                 0.4987
    ------------------------------------------------------
  ----------------------------------------------------------------------------


  Excited state  7 (A)                                             [converged]
  ----------------------------------------------------------------------------
  Term symbol:  8 (-) A                                     R^2 =  2.88099e-07

  Total energy:                                           -425.1271796743 a.u.
  Excitation energy:                                             306.439883 eV

  Osc. strength:                                                      0.025862
  Trans. dip. moment [a.u.]:           [  -0.012505,    0.028110,    0.049982]
  <i|r^2|0> [a.u.]:                    [   0.013082,    0.241272,   -0.031728]

  V1^2 = 0.9205, V2^2 = 0.0795

  Important amplitudes:
     core i     occ j      vir a      vir b          v   
    ------------------------------------------------------
     5 (A) A              23 (A) A                -0.5498
     5 (A) B              23 (A) B                -0.5498
    ------------------------------------------------------
  ----------------------------------------------------------------------------


  Excited state  8 (A)                                             [converged]
  ----------------------------------------------------------------------------
  Term symbol:  9 (-) A                                     R^2 =  1.80358e-07

  Total energy:                                           -425.1066339382 a.u.
  Excitation energy:                                             306.998961 eV

  Osc. strength:                                                      0.118151
  Trans. dip. moment [a.u.]:           [  -0.106449,    0.018529,   -0.063513]
  <i|r^2|0> [a.u.]:                    [   0.255562,    0.173026,    0.010017]

  V1^2 = 0.9450, V2^2 = 0.0550

  Important amplitudes:
     core i     occ j      vir a      vir b          v   
    ------------------------------------------------------
     5 (A) B              25 (A) B                -0.5332
     5 (A) A              25 (A) A                -0.5332
    ------------------------------------------------------
  ----------------------------------------------------------------------------


  Excited state  9 (A)                                         [not converged]
  ----------------------------------------------------------------------------
  Term symbol:  10 (-) A                                    R^2 =  3.27040e-06

  Total energy:                                           -424.9252085478 a.u.
  Excitation energy:                                             311.935797 eV


  V1^2 = 0.9066, V2^2 = 0.0934

  Important amplitudes:
     core i     occ j      vir a      vir b          v   
    ------------------------------------------------------
     5 (A) A              26 (A) A                 0.4969
     5 (A) B              26 (A) B                -0.4969
    ------------------------------------------------------
  ----------------------------------------------------------------------------


  Excited state 10 (A)                                             [converged]
  ----------------------------------------------------------------------------
  Term symbol:  11 (-) A                                    R^2 =  5.19698e-07

  Total energy:                                           -424.8804288791 a.u.
  Excitation energy:                                             313.154313 eV

  Osc. strength:                                                      0.020295
  Trans. dip. moment [a.u.]:           [  -0.019828,   -0.043047,    0.019977]
  <i|r^2|0> [a.u.]:                    [   0.027959,   -0.428378,   -0.025174]

  V1^2 = 0.9109, V2^2 = 0.0891

  Important amplitudes:
     core i     occ j      vir a      vir b          v   
    ------------------------------------------------------
     5 (A) B              26 (A) B                 0.5646
     5 (A) A              26 (A) A                 0.5646
    ------------------------------------------------------
  ----------------------------------------------------------------------------


  Excited state 11 (A)                                             [converged]
  ----------------------------------------------------------------------------
  Term symbol:  12 (-) A                                    R^2 =  3.42405e-07

  Total energy:                                           -424.8532936354 a.u.
  Excitation energy:                                             313.892701 eV

  Osc. strength:                                                      0.000000
  Trans. dip. moment [a.u.]:           [  -0.000000,    0.000000,    0.000000]
  <i|r^2|0> [a.u.]:                    [   0.000000,    0.000000,   -0.000000]

  V1^2 = 0.8881, V2^2 = 0.1119

  Important amplitudes:
     core i     occ j      vir a      vir b          v   
    ------------------------------------------------------
     5 (A) A              27 (A) A                 0.4489
     5 (A) B              27 (A) B                -0.4489
    ------------------------------------------------------
  ----------------------------------------------------------------------------


  Excited state 12 (A)                                             [converged]
  ----------------------------------------------------------------------------
  Term symbol:  13 (-) A                                    R^2 =  4.23156e-07

  Total energy:                                           -424.8473296112 a.u.
  Excitation energy:                                             314.054990 eV

  Osc. strength:                                                      0.000000
  Trans. dip. moment [a.u.]:           [  -0.000000,    0.000000,    0.000000]
  <i|r^2|0> [a.u.]:                    [  -0.000000,    0.000000,   -0.000000]

  V1^2 = 0.8878, V2^2 = 0.1122

  Important amplitudes:
     core i     occ j      vir a      vir b          v   
    ------------------------------------------------------
     5 (A) B              25 (A) B                -0.4618
     5 (A) A              25 (A) A                 0.4618
    ------------------------------------------------------
  ----------------------------------------------------------------------------


  Excited state 13 (A)                                             [converged]
  ----------------------------------------------------------------------------
  Term symbol:  14 (-) A                                    R^2 =  5.60608e-07

  Total energy:                                           -424.8393702063 a.u.
  Excitation energy:                                             314.271577 eV

  Osc. strength:                                                      0.027134
  Trans. dip. moment [a.u.]:           [   0.024871,   -0.029285,   -0.045254]
  <i|r^2|0> [a.u.]:                    [  -0.057069,   -0.274595,    0.015975]

  V1^2 = 0.8916, V2^2 = 0.1084

  Important amplitudes:
     core i     occ j      vir a      vir b          v   
    ------------------------------------------------------
     5 (A) A              27 (A) A                -0.5020
     5 (A) B              27 (A) B                -0.5020
    ------------------------------------------------------
  ----------------------------------------------------------------------------


  Excited state 14 (A)                                             [converged]
  ----------------------------------------------------------------------------
  Term symbol:  15 (-) A                                    R^2 =  5.26681e-07

  Total energy:                                           -424.8320577058 a.u.
  Excitation energy:                                             314.470560 eV

  Osc. strength:                                                      0.031076
  Trans. dip. moment [a.u.]:           [   0.053157,   -0.007479,    0.033941]
  <i|r^2|0> [a.u.]:                    [  -0.126199,   -0.070649,   -0.007927]

  V1^2 = 0.8921, V2^2 = 0.1079

  Important amplitudes:
     core i     occ j      vir a      vir b          v   
    ------------------------------------------------------
     5 (A) B              25 (A) B                -0.4023
     5 (A) A              25 (A) A                -0.4023
    ------------------------------------------------------
  ----------------------------------------------------------------------------


  Excited state 15 (A)                                         [not converged]
  ----------------------------------------------------------------------------
  Term symbol:  16 (-) A                                    R^2 =  1.95517e-06

  Total energy:                                           -424.7824158914 a.u.
  Excitation energy:                                             315.821382 eV


  V1^2 = 0.8874, V2^2 = 0.1126

  Important amplitudes:
     core i     occ j      vir a      vir b          v   
    ------------------------------------------------------
     5 (A) B              28 (A) B                -0.4315
     5 (A) A              28 (A) A                 0.4315
    ------------------------------------------------------
  ----------------------------------------------------------------------------


  Excited state 16 (A)                                         [not converged]
  ----------------------------------------------------------------------------
  Term symbol:  17 (-) A                                    R^2 =  1.81766e-06

  Total energy:                                           -424.7671111760 a.u.
  Excitation energy:                                             316.237845 eV


  V1^2 = 0.8898, V2^2 = 0.1102

  Important amplitudes:
     core i     occ j      vir a      vir b          v   
    ------------------------------------------------------
     5 (A) B              28 (A) B                -0.4543
     5 (A) A              28 (A) A                -0.4543
    ------------------------------------------------------
  ----------------------------------------------------------------------------


  Excited state 17 (A)                                         [not converged]
  ----------------------------------------------------------------------------
  Term symbol:  18 (-) A                                    R^2 =  8.78434e-04

  Total energy:                                           -424.2339553747 a.u.
  Excitation energy:                                             330.745752 eV


  V1^2 = 0.8846, V2^2 = 0.1154

  Important amplitudes:
     core i     occ j      vir a      vir b          v   
    ------------------------------------------------------
     5 (A) B              33 (A) B                 0.6107
     5 (A) A              33 (A) A                -0.6104
    ------------------------------------------------------
  ----------------------------------------------------------------------------


  Excited state 18 (A)                                         [not converged]
  ----------------------------------------------------------------------------
  Term symbol:  19 (-) A                                    R^2 =  5.54886e-04

  Total energy:                                           -424.2326976724 a.u.
  Excitation energy:                                             330.779976 eV


  V1^2 = 0.8847, V2^2 = 0.1153

  Important amplitudes:
     core i     occ j      vir a      vir b          v   
    ------------------------------------------------------
     5 (A) A              33 (A) A                -0.6242
     5 (A) B              33 (A) B                -0.6233
    ------------------------------------------------------
  ----------------------------------------------------------------------------


  Excited state 19 (A)                                         [not converged]
  ----------------------------------------------------------------------------
  Term symbol:  20 (-) A                                    R^2 =  1.48211e-03

  Total energy:                                           -424.2289113330 a.u.
  Excitation energy:                                             330.883008 eV


  V1^2 = 0.8828, V2^2 = 0.1172

  Important amplitudes:
     core i     occ j      vir a      vir b          v   
    ------------------------------------------------------
     5 (A) B              34 (A) B                -0.6375
     5 (A) A              34 (A) A                 0.6350
    ------------------------------------------------------
  ----------------------------------------------------------------------------


  Excited state 20 (A)                                         [not converged]
  ----------------------------------------------------------------------------
  Term symbol:  21 (-) A                                    R^2 =  1.70815e-03

  Total energy:                                           -424.2281253148 a.u.
  Excitation energy:                                             330.904396 eV


  V1^2 = 0.8825, V2^2 = 0.1175

  Important amplitudes:
     core i     occ j      vir a      vir b          v   
    ------------------------------------------------------
     5 (A) A              34 (A) A                -0.6406
     5 (A) B              34 (A) B                -0.6386
    ------------------------------------------------------
  ----------------------------------------------------------------------------


--------------------------------------------------------------------------------
  Time of ADC calculation:  CPU 3910.68 s  wall 2376.31 s
================================================================================
 
 --------------------------------------------------------------
 
                    Orbital Energies (a.u.)
 --------------------------------------------------------------
 
 Alpha MOs
 -- Occupied --
-26.421 -26.420 -26.401 -26.254 -11.620  -1.857  -1.757  -1.727
 -1.523  -1.026  -0.936  -0.928  -0.889  -0.781  -0.773  -0.753
 -0.740  -0.711  -0.595  -0.591  -0.590
 -- Virtual --
  0.272   0.396   0.481   0.503   0.659   0.695   0.722   0.724
  1.269   1.271   1.291   1.303   1.305   1.432   1.549   1.562
  1.565   1.575   1.591   1.653   1.702   1.703   1.766   1.889
  1.897   2.033   2.042   2.056   2.070   2.140   2.150   2.250
  2.269   2.291   2.307   2.356   2.374   2.437   2.450   2.512
  2.766   2.967   3.018   3.208   3.263   3.267   3.496   3.510
  3.557   4.389   4.729   4.989   5.115   6.375
 
 Beta MOs
 -- Occupied --
-26.421 -26.420 -26.401 -26.254 -11.620  -1.857  -1.757  -1.727
 -1.523  -1.026  -0.936  -0.928  -0.889  -0.781  -0.773  -0.753
 -0.740  -0.711  -0.595  -0.591  -0.590
 -- Virtual --
  0.272   0.396   0.481   0.503   0.659   0.695   0.722   0.724
  1.269   1.271   1.291   1.303   1.305   1.432   1.549   1.562
  1.565   1.575   1.591   1.653   1.702   1.703   1.766   1.889
  1.897   2.033   2.042   2.056   2.070   2.140   2.150   2.250
  2.269   2.291   2.307   2.356   2.374   2.437   2.450   2.512
  2.766   2.967   3.018   3.208   3.263   3.267   3.496   3.510
  3.557   4.389   4.729   4.989   5.115   6.375
 --------------------------------------------------------------
 
          Ground-State Mulliken Net Atomic Charges

     Atom                 Charge (a.u.)    Spin (a.u.)
  --------------------------------------------------------
      1 C                     1.251159       0.000000
      2 F                    -0.219864       0.000000
      3 F                    -0.277593       0.000000
      4 F                    -0.527469       0.000000
      5 F                    -0.226234       0.000000
  --------------------------------------------------------
  Sum of atomic charges =     0.000000
  Sum of spin   charges =     0.000000

 -----------------------------------------------------------------
                    Cartesian Multipole Moments
 -----------------------------------------------------------------
    Charge (ESU x 10^10)
                 0.0000
    Dipole Moment (Debye)
         X       1.0046      Y       2.1437      Z      -1.0478
       Tot       2.5889
    Quadrupole Moments (Debye-Ang)
        XX     -25.7072     XY       0.2636     YY     -16.0449
        XZ       1.0180     YZ      -1.9085     ZZ     -24.3970
    Octopole Moments (Debye-Ang^2)
       XXX      51.8558    XXY     -57.9572    XYY      15.4715
       YYY    -144.8991    XXZ      -1.1330    XYZ       1.6246
       YYZ      -4.9015    XZZ      17.5412    YZZ     -57.0639
       ZZZ       0.0524
    Hexadecapole Moments (Debye-Ang^3)
      XXXX    -145.3895   XXXY     117.2716   XXYY    -172.0124
      XYYY     113.2114   YYYY    -805.7458   XXXZ       2.1051
      XXYZ      -1.2064   XYYZ       3.6149   YYYZ     -14.4823
      XXZZ     -37.3595   XYZZ      40.4821   YYZZ    -160.3518
      XZZZ       0.6973   YZZZ       2.0817   ZZZZ     -74.9100
 -----------------------------------------------------------------
Archival summary:
1\1\tp-linux1\SP\HF\6-31G*\41\thomas\MonMar2011:45:332017MonMar2011:45:332017\0\\#,HF,6-31G*,\\0,1\C\F,1,1.21957\F,1,1.22441,2,118.78\F,1,1.2667,2,116.023,3,144.203,0\F,1,1.56642,2,100.421,3,-109.086,0\\HF=-435.586907\\@

 Total job time:  2380.12s(wall), 3921.34s(cpu) 
 Mon Mar 20 11:45:33 2017

        *************************************************************
        *                                                           *
        *  Thank you very much for using Q-Chem.  Have a nice day.  *
        *                                                           *
        *************************************************************


0 sent ACK to 0 
now end server 0 ... 
cleanup process ... done
