
Running Job 1 of 2 ddtraj4t18.inp
qchem ddtraj4t18.inp_32590.0 /scratch/qchem/qchem32590/ 1
/mnt/software/qchem/bin/mpi/mpirun_qchem -machinefile /mnt/software/qchem/bin/mpi/machines -np 1 /mnt/software/qchem/exe/qcprog.exe ddtraj4t18.inp_32590.0 /scratch/qchem/qchem32590/

Process 0 of 1 is on tp-linux1 - thread support 0
initial socket setup ...start
initial socket setup ...done 
now start server 0 ... 

cmd = ssh tp-linux1 /mnt/software/qchem/bin/get_hostid 2132321224 > /scratch/qchem/qchem32590/lic.dat
                  Welcome to Q-Chem
     A Quantum Leap Into The Future Of Chemistry


 Q-Chem 4.3, Q-Chem, Inc., Pleasanton, CA (2015)

 Y. Shao,  Z. Gan,  E. Epifanovsky,  A. T. B. Gilbert,  M. Wormit,  
 J. Kussmann,  A. W. Lange,  A. Behn,  J. Deng,  X. Feng,  D. Ghosh,  
 M. Goldey,  P. R. Horn,  L. D. Jacobson,  I. Kaliman,  R. Z. Khaliullin,  
 T. Kus,  A. Landau,  J. Liu,  E. I. Proynov,  Y. M. Rhee,  R. M. Richard,  
 M. A. Rohrdanz,  R. P. Steele,  E. J. Sundstrom,  H. L. Woodcock III,  
 P. M. Zimmerman,  D. Zuev,  B. Albrecht,  E. Alguire,  B. Austin,  
 S. A. Baeppler,  G. J. O. Beran,  Y. A. Bernard,  E. Berquist,  
 K. Brandhorst,  K. B. Bravaya,  S. T. Brown,  D. Casanova,  C.-M. Chang,  
 Y. Chen,  S. H. Chien,  K. D. Closser,  D. L. Crittenden,  M. Diedenhofen,  
 R. A. DiStasio Jr.,  H. Do,  A. D. Dutoi,  R. G. Edgar,  P.-T. Fang,  
 S. Fatehi,  Q. Feng,  L. Fusti-Molnar,  A. Ghysels,  
 A. Golubeva-Zadorozhnaya,  J. Gomes,  A. Gunina,  M. W. D. Hanson-Heine,  
 P. H. P. Harbach,  A. W. Hauser,  E. G. Hohenstein,  Z. C. Holden,  K. Hui,  
 T.-C. Jagau,  H. Ji,  B. Kaduk,  K. Khistyaev,  Jaehoon Kim,  Jihan Kim,  
 R. A. King,  P. Klunzinger,  D. Kosenkov,  T. Kowalczyk,  C. M. Krauter,  
 K. U. Lao,  A. Laurent,  K. V. Lawler,  S. Lehtola,  S. V. Levchenko,  
 C. Y. Lin,  Y.-S. Lin,  F. Liu,  E. Livshits,  R. C. Lochan,  A. Luenser,  
 P. Manohar,  S. F. Manzer,  S.-P. Mao,  N. Mardirossian,  A. V. Marenich,  
 L. A. Martinez-Martinez,  S. A. Maurer,  N. J. Mayhall,  K. Nanda,  
 C. M. Oana,  R. Olivares-Amaya,  D. P. O'Neill,  J. A. Parkhill,  
 T. M. Perrine,  R. Peverati,  P. A. Pieniazek,  F. Plasser,  A. Prociuk,  
 D. R. Rehn,  E. Rosta,  N. J. Russ,  N. Sergueev,  S. M. Sharada,  
 S. Sharma,  D. W. Small,  A. Sodt,  T. Stauch,  T. Stein,  D. Stuck,  
 Y.-C. Su,  A. J. W. Thom,  T. Tsuchimochi,  L. Vogt,  O. Vydrov,  T. Wang,  
 M. A. Watson,  J. Wenzel,  A. White,  C. F. Williams,  V. Vanovschi,  
 S. Yeganeh,  S. R. Yost,  Z.-Q. You,  I. Y. Zhang,  X. Zhang,  Y. Zhao,  
 B. R. Brooks,  G. K. L. Chan,  D. M. Chipman,  C. J. Cramer,  
 W. A. Goddard III,  M. S. Gordon,  W. J. Hehre,  A. Klamt,  
 H. F. Schaefer III,  M. W. Schmidt,  C. D. Sherrill,  D. G. Truhlar,  
 A. Warshel,  X. Xu,  A. Aspuru-Guzik,  R. Baer,  A. T. Bell,  N. A. Besley,  
 J.-D. Chai,  A. Dreuw,  B. D. Dunietz,  T. R. Furlani,  S. R. Gwaltney,  
 C.-P. Hsu,  Y. Jung,  J. Kong,  D. S. Lambrecht,  W. Liang,  C. Ochsenfeld,  
 V. A. Rassolov,  L. V. Slipchenko,  J. E. Subotnik,  T. Van Voorhis,  
 J. M. Herbert,  A. I. Krylov,  P. M. W. Gill,  M. Head-Gordon

 Contributors to earlier versions of Q-Chem not listed above: 
 R. D. Adamson,  J. Baker,  E. F. C. Byrd,  A. K. Chakraborty,  C.-L. Cheng,  
 H. Dachsel,  R. J. Doerksen,  G. Hawkins,  A. Heyden,  S. Hirata,  
 G. Kedziora,  F. J. Keil,  C. Kelley,  P. P. Korambath,  W. Kurlancheek,  
 A. M. Lee,  M. S. Lee,  D. Liotard,  I. Lotan,  P. E. Maslen,  N. Nair,  
 D. Neuhauser,  R. Olson,  B. Peters,  J. Ritchie,  N. E. Schultz,  
 N. Shenvi,  A. C. Simmonett,  K. S. Thanthiriwatte,  Q. Wu,  W. Zhang

 Please cite Q-Chem as follows:
 Y. Shao et al., Mol. Phys. 113, 184-215 (2015)
 DOI: 10.1080/00268976.2014.952696

 Q-Chem 4.3.0 for Intel X86 Linux

 Parts of Q-Chem use Armadillo 5.200.1 (Boston Tea Smuggler).
 http://arma.sourceforge.net/

 Q-Chem begins on Sun Mar 19 10:59:31 2017  

Host: 
0

     Scratch files written to /scratch/qchem/qchem32590//
 Nov1815 1189b_ 19540  19532 5443   
 Parallel job on  1  processors
Processing $rem in /mnt/software/qchem/config/preferences.
 MEM_TOTAL  2000 

Checking the input file for inconsistencies... 	...done.

--------------------------------------------------------------
User input:
--------------------------------------------------------------
$comment
XAS calculation for the 2b valence excited for water using cvs-adc(2)-x + 6-311+G* basis set
job 1 - determination of HF orbitals
$end

$molecule
0 1
6  -0.484436  2.964352  -0.224812
9  0.672316  2.372292  -0.031514
9  -1.131536  3.156375  0.78315
9  -1.353389  0.927389  0.616145
9  -1.105968  2.543717  -1.227828
$end

$rem
jobtype      sp
sym_ignore true
exchange     hf
basis        6-31G*
unrestricted true
$end

--------------------------------------------------------------
 ----------------------------------------------------------------
             Standard Nuclear Orientation (Angstroms)
    I     Atom           X                Y                Z
 ----------------------------------------------------------------
    1      C      -0.4844360000     2.9643520000    -0.2248120000
    2      F       0.6723160000     2.3722920000    -0.0315140000
    3      F      -1.1315360000     3.1563750000     0.7831500000
    4      F      -1.3533890000     0.9273890000     0.6161450000
    5      F      -1.1059680000     2.5437170000    -1.2278280000
 ----------------------------------------------------------------
 Nuclear Repulsion Energy =   193.7837926566 hartrees
 There are       21 alpha and       21 beta electrons
 Requested basis set is 6-31G(d)
 There are 20 shells and 75 basis functions

 Total QAlloc Memory Limit   2000 MB
 Mega-Array Size        61 MB
 MEM_STATIC part        62 MB

                       Distance Matrix (Angstroms)
             C (  1)   F (  2)   F (  3)   F (  4)
   F (  2)  1.313763
   F (  3)  1.213095  2.128931
   F (  4)  2.368862  2.571126  2.246216
   F (  5)  1.252708  2.150081  2.102388  2.464543
 
 tim1(1): 
  3.999999999999997E-003
 tim1(2): 
  0.000000000000000E+000
 A cutoff of  1.0D-08 yielded    196 shell pairs
 There are      2950 function pairs
 
 -------------------------------------------------------
 OpenMP Integral Computing Module                       
 Release: version 1.0, May 2013, Q-Chem Inc. Pittsburgh 
 -------------------------------------------------------
 Integral Job Info:
 Integral job number is                      11
 Integral operator is                         1
 short-range coefficients                     0
 long-range coefficients              100000000
 Omega coefficients                           0
 if combine SR and LR in K                    0
 Integral screening is                        0
 Integral computing path is                   2
 max size of driver memory is            800000
 size of driver memory is                593474
 size of scratch memory is              2260544
 max col of scratch BK array               1296
 max len of scratch array in speh3          155
 max len of scratch index in speh4           18
 max int batch size is                      520
 min int batch size is                       52
 fixed nKL is                                52
 max L of basis functions is                  2
 order of int derivative is                   0
 number of shells is                         20
 number of basis is                          75
 number of cartesian basis is                75
 number of contracted shell pairs           196
 number of primitive shell pairs            954
 maxK2 (contraction) of shell pair           36
 max number of K2 of shell pair               1
 max number of CS2 of shell pair             28
 max number of PS2 of shell pair            180
 mem total for path MDJ                   21832
 -------------------------------------------------------
 Smallest overlap matrix eigenvalue = 1.66E-03

 Scale SEOQF with 1.000000e+00/1.000000e-01/1.000000e+00

 Standard Electronic Orientation quadrupole field applied
 Nucleus-field energy     =     0.0000000099 hartrees
 Guess from superposition of atomic densities
 Warning:  Energy on first SCF cycle will be non-variational
 An unrestricted Hartree-Fock SCF calculation will be
 performed using Pulay DIIS extrapolation
 SCF converges when DIIS error is below 1.0E-05
 using 8 threads for integral computing 
 ---------------------------------------
  Cycle       Energy         DIIS Error
 ---------------------------------------
    1    -436.1357157338      8.49E-02
    2    -435.0668888087      2.20E-02
    3    -433.9343325901      4.07E-02
    4    -435.2702887397      1.19E-02
    5    -435.3111688839      7.29E-03
    6    -435.3382904256      2.68E-03
    7    -435.3426718493      8.92E-04
    8    -435.3434984132      1.55E-04
    9    -435.3436352251      9.42E-05
   10    -435.3436895996      7.43E-05
   11    -435.3437242690      4.17E-05
   12    -435.3437356555      6.75E-06 Convergence criterion met
 ---------------------------------------
 <S^2> = 0.0000
 SCF time:  CPU 13.23 s  wall 2.96 s
 SCF   energy in the final basis set = -435.3437356555
 Total energy in the final basis set = -435.3437356555
 
 --------------------------------------------------------------
 
                    Orbital Energies (a.u.)
 --------------------------------------------------------------
 
 Alpha MOs
 -- Occupied --
-26.532 -26.519 -26.498 -25.974 -11.736  -1.923  -1.829  -1.785
 -1.240  -1.098  -1.001  -0.993  -0.937  -0.840  -0.829  -0.812
 -0.796  -0.789  -0.346  -0.345  -0.338
 -- Virtual --
 -0.085   0.318   0.348   0.372   0.539   0.580   0.624   0.768
  1.206   1.211   1.229   1.272   1.287   1.398   1.478   1.506
  1.512   1.520   1.531   1.546   1.639   1.746   1.790   1.890
  1.900   1.972   1.978   1.989   2.004   2.042   2.051   2.149
  2.185   2.200   2.273   2.329   2.398   2.402   2.425   2.524
  2.690   2.716   2.807   2.929   3.058   3.111   3.335   3.361
  3.522   4.239   4.492   4.630   4.824   6.663
 
 Beta MOs
 -- Occupied --
-26.532 -26.519 -26.498 -25.974 -11.736  -1.923  -1.829  -1.785
 -1.240  -1.098  -1.001  -0.993  -0.937  -0.840  -0.829  -0.812
 -0.796  -0.789  -0.346  -0.345  -0.338
 -- Virtual --
 -0.085   0.318   0.348   0.372   0.539   0.580   0.624   0.768
  1.206   1.211   1.229   1.272   1.287   1.398   1.478   1.506
  1.512   1.520   1.531   1.546   1.639   1.746   1.790   1.890
  1.900   1.972   1.978   1.989   2.004   2.042   2.051   2.149
  2.185   2.200   2.273   2.329   2.398   2.402   2.425   2.524
  2.690   2.716   2.807   2.929   3.058   3.111   3.335   3.361
  3.522   4.239   4.492   4.630   4.824   6.663
 --------------------------------------------------------------
 
          Ground-State Mulliken Net Atomic Charges

     Atom                 Charge (a.u.)    Spin (a.u.)
  --------------------------------------------------------
      1 C                     1.229195       0.000000
      2 F                    -0.191672       0.000000
      3 F                    -0.046439       0.000000
      4 F                    -0.867103       0.000000
      5 F                    -0.123981       0.000000
  --------------------------------------------------------
  Sum of atomic charges =     0.000000
  Sum of spin   charges =     0.000000

 -----------------------------------------------------------------
                    Cartesian Multipole Moments
 -----------------------------------------------------------------
    Charge (ESU x 10^10)
                 0.0000
    Dipole Moment (Debye)
         X       3.1774      Y       8.5964      Z      -3.2852
       Tot       9.7358
    Quadrupole Moments (Debye-Ang)
        XX     -29.1387     XY      -1.6028     YY      11.9126
        XZ       3.5831     YZ      -4.9113     ZZ     -23.9910
    Octopole Moments (Debye-Ang^2)
       XXX      57.8985    XXY     -57.0121    XYY       1.3133
       YYY     -42.1027    XXZ      -4.6047    XYZ       3.5984
       YYZ     -11.1706    XZZ      17.4749    YZZ     -53.3265
       ZZZ      -1.5567
    Hexadecapole Moments (Debye-Ang^3)
      XXXX    -169.5537   XXXY     107.7079   XXYY    -165.4720
      XYYY      47.7196   YYYY    -464.4478   XXXZ      12.2441
      XXYZ      -0.2466   XYYZ       6.0418   YYYZ     -23.4782
      XXZZ     -41.2525   XYZZ      33.8013   YYZZ    -152.5360
      XZZZ       7.3551   YZZZ       9.7417   ZZZZ     -82.2486
 -----------------------------------------------------------------
Archival summary:
1\1\tp-linux1\SP\HF\6-31G*\41\thomas\SunMar1910:59:352017SunMar1910:59:352017\0\\#,HF,6-31G*,\\0,1\F\C,1,1.21309\F,2,1.25271,1,116.986\F,2,1.31376,1,114.756,3,137.16,0\F,1,2.24622,2,80.4348,3,-65.3614,0\\HF=-435.343736\\@

 Total job time:  3.25s(wall), 14.90s(cpu) 
 Sun Mar 19 10:59:35 2017

        *************************************************************
        *                                                           *
        *  Thank you very much for using Q-Chem.  Have a nice day.  *
        *                                                           *
        *************************************************************


0 sent ACK to 0 
now end server 0 ... 
cleanup process ... done

Running Job 2 of 2 ddtraj4t18.inp
qchem ddtraj4t18.inp_32590.1 /scratch/qchem/qchem32590/ 1
/mnt/software/qchem/bin/mpi/mpirun_qchem -machinefile /mnt/software/qchem/bin/mpi/machines -np 1 /mnt/software/qchem/exe/qcprog.exe ddtraj4t18.inp_32590.1 /scratch/qchem/qchem32590/

Process 0 of 1 is on tp-linux1 - thread support 0
initial socket setup ...start
initial socket setup ...done 
now start server 0 ... 

cmd = ssh tp-linux1 /mnt/software/qchem/bin/get_hostid 298955159 > /scratch/qchem/qchem32590/lic.dat
                  Welcome to Q-Chem
     A Quantum Leap Into The Future Of Chemistry


 Q-Chem 4.3, Q-Chem, Inc., Pleasanton, CA (2015)

 Y. Shao,  Z. Gan,  E. Epifanovsky,  A. T. B. Gilbert,  M. Wormit,  
 J. Kussmann,  A. W. Lange,  A. Behn,  J. Deng,  X. Feng,  D. Ghosh,  
 M. Goldey,  P. R. Horn,  L. D. Jacobson,  I. Kaliman,  R. Z. Khaliullin,  
 T. Kus,  A. Landau,  J. Liu,  E. I. Proynov,  Y. M. Rhee,  R. M. Richard,  
 M. A. Rohrdanz,  R. P. Steele,  E. J. Sundstrom,  H. L. Woodcock III,  
 P. M. Zimmerman,  D. Zuev,  B. Albrecht,  E. Alguire,  B. Austin,  
 S. A. Baeppler,  G. J. O. Beran,  Y. A. Bernard,  E. Berquist,  
 K. Brandhorst,  K. B. Bravaya,  S. T. Brown,  D. Casanova,  C.-M. Chang,  
 Y. Chen,  S. H. Chien,  K. D. Closser,  D. L. Crittenden,  M. Diedenhofen,  
 R. A. DiStasio Jr.,  H. Do,  A. D. Dutoi,  R. G. Edgar,  P.-T. Fang,  
 S. Fatehi,  Q. Feng,  L. Fusti-Molnar,  A. Ghysels,  
 A. Golubeva-Zadorozhnaya,  J. Gomes,  A. Gunina,  M. W. D. Hanson-Heine,  
 P. H. P. Harbach,  A. W. Hauser,  E. G. Hohenstein,  Z. C. Holden,  K. Hui,  
 T.-C. Jagau,  H. Ji,  B. Kaduk,  K. Khistyaev,  Jaehoon Kim,  Jihan Kim,  
 R. A. King,  P. Klunzinger,  D. Kosenkov,  T. Kowalczyk,  C. M. Krauter,  
 K. U. Lao,  A. Laurent,  K. V. Lawler,  S. Lehtola,  S. V. Levchenko,  
 C. Y. Lin,  Y.-S. Lin,  F. Liu,  E. Livshits,  R. C. Lochan,  A. Luenser,  
 P. Manohar,  S. F. Manzer,  S.-P. Mao,  N. Mardirossian,  A. V. Marenich,  
 L. A. Martinez-Martinez,  S. A. Maurer,  N. J. Mayhall,  K. Nanda,  
 C. M. Oana,  R. Olivares-Amaya,  D. P. O'Neill,  J. A. Parkhill,  
 T. M. Perrine,  R. Peverati,  P. A. Pieniazek,  F. Plasser,  A. Prociuk,  
 D. R. Rehn,  E. Rosta,  N. J. Russ,  N. Sergueev,  S. M. Sharada,  
 S. Sharma,  D. W. Small,  A. Sodt,  T. Stauch,  T. Stein,  D. Stuck,  
 Y.-C. Su,  A. J. W. Thom,  T. Tsuchimochi,  L. Vogt,  O. Vydrov,  T. Wang,  
 M. A. Watson,  J. Wenzel,  A. White,  C. F. Williams,  V. Vanovschi,  
 S. Yeganeh,  S. R. Yost,  Z.-Q. You,  I. Y. Zhang,  X. Zhang,  Y. Zhao,  
 B. R. Brooks,  G. K. L. Chan,  D. M. Chipman,  C. J. Cramer,  
 W. A. Goddard III,  M. S. Gordon,  W. J. Hehre,  A. Klamt,  
 H. F. Schaefer III,  M. W. Schmidt,  C. D. Sherrill,  D. G. Truhlar,  
 A. Warshel,  X. Xu,  A. Aspuru-Guzik,  R. Baer,  A. T. Bell,  N. A. Besley,  
 J.-D. Chai,  A. Dreuw,  B. D. Dunietz,  T. R. Furlani,  S. R. Gwaltney,  
 C.-P. Hsu,  Y. Jung,  J. Kong,  D. S. Lambrecht,  W. Liang,  C. Ochsenfeld,  
 V. A. Rassolov,  L. V. Slipchenko,  J. E. Subotnik,  T. Van Voorhis,  
 J. M. Herbert,  A. I. Krylov,  P. M. W. Gill,  M. Head-Gordon

 Contributors to earlier versions of Q-Chem not listed above: 
 R. D. Adamson,  J. Baker,  E. F. C. Byrd,  A. K. Chakraborty,  C.-L. Cheng,  
 H. Dachsel,  R. J. Doerksen,  G. Hawkins,  A. Heyden,  S. Hirata,  
 G. Kedziora,  F. J. Keil,  C. Kelley,  P. P. Korambath,  W. Kurlancheek,  
 A. M. Lee,  M. S. Lee,  D. Liotard,  I. Lotan,  P. E. Maslen,  N. Nair,  
 D. Neuhauser,  R. Olson,  B. Peters,  J. Ritchie,  N. E. Schultz,  
 N. Shenvi,  A. C. Simmonett,  K. S. Thanthiriwatte,  Q. Wu,  W. Zhang

 Please cite Q-Chem as follows:
 Y. Shao et al., Mol. Phys. 113, 184-215 (2015)
 DOI: 10.1080/00268976.2014.952696

 Q-Chem 4.3.0 for Intel X86 Linux

 Parts of Q-Chem use Armadillo 5.200.1 (Boston Tea Smuggler).
 http://arma.sourceforge.net/

 Q-Chem begins on Sun Mar 19 10:59:37 2017  

Host: 
0

     Scratch files written to /scratch/qchem/qchem32590//
 Nov1815 1189b_ 19540  19532 5443   
 Parallel job on  1  processors
Processing $rem in /mnt/software/qchem/config/preferences.
 MEM_TOTAL  2000 

Checking the input file for inconsistencies... 	...done.

--------------------------------------------------------------
User input:
--------------------------------------------------------------

$comment
job3 - cvs-adc(2) calculation
$end

$molecule
read
$end

$rem
mem_total 3000
mem_static 1500
sym_ignore true
scf_guess read
method cvs-adc(2)
basis 6-31G*
ee_singlets 20
cc_rest_occ 5                  !only excitations from the lowest N orbitals
unrestricted  true
max_scf_cycles 200
$end
--------------------------------------------------------------
 ----------------------------------------------------------------
             Standard Nuclear Orientation (Angstroms)
    I     Atom           X                Y                Z
 ----------------------------------------------------------------
    1      C      -0.4844360000     2.9643520000    -0.2248120000
    2      F       0.6723160000     2.3722920000    -0.0315140000
    3      F      -1.1315360000     3.1563750000     0.7831500000
    4      F      -1.3533890000     0.9273890000     0.6161450000
    5      F      -1.1059680000     2.5437170000    -1.2278280000
 ----------------------------------------------------------------
 Nuclear Repulsion Energy =   193.7837926566 hartrees
 There are       21 alpha and       21 beta electrons
 Requested basis set is 6-31G(d)
 There are 20 shells and 75 basis functions

 Total QAlloc Memory Limit   3000 MB
 Mega-Array Size      1467 MB
 MEM_STATIC part      1500 MB

                       Distance Matrix (Angstroms)
             C (  1)   F (  2)   F (  3)   F (  4)
   F (  2)  1.313763
   F (  3)  1.213095  2.128931
   F (  4)  2.368862  2.571126  2.246216
   F (  5)  1.252708  2.150081  2.102388  2.464543
 
 tim1(1): 
  0.000000000000000E+000
 tim1(2): 
  0.000000000000000E+000
 A cutoff of  1.0D-11 yielded    201 shell pairs
 There are      2970 function pairs
 
 -------------------------------------------------------
 OpenMP Integral Computing Module                       
 Release: version 1.0, May 2013, Q-Chem Inc. Pittsburgh 
 -------------------------------------------------------
 Integral Job Info:
 Integral job number is                      11
 Integral operator is                         1
 short-range coefficients                     0
 long-range coefficients              100000000
 Omega coefficients                           0
 if combine SR and LR in K                    0
 Integral screening is                        0
 Integral computing path is                   2
 max size of driver memory is            800000
 size of driver memory is                593474
 size of scratch memory is              2260544
 max col of scratch BK array               1296
 max len of scratch array in speh3          155
 max len of scratch index in speh4           18
 max int batch size is                      520
 min int batch size is                       52
 fixed nKL is                                52
 max L of basis functions is                  2
 order of int derivative is                   0
 number of shells is                         20
 number of basis is                          75
 number of cartesian basis is                75
 number of contracted shell pairs           201
 number of primitive shell pairs           1028
 maxK2 (contraction) of shell pair           36
 max number of K2 of shell pair               1
 max number of CS2 of shell pair             34
 max number of PS2 of shell pair            204
 mem total for path MDJ                   21832
 -------------------------------------------------------
 Smallest overlap matrix eigenvalue = 1.66E-03

 Scale SEOQF with 1.000000e+00/1.000000e-01/1.000000e+00

 Standard Electronic Orientation quadrupole field applied
 Nucleus-field energy     =     0.0000000099 hartrees
 Guess MOs from SCF MO coefficient file
 Reading MOs from coefficient file
 Reading MOs from coefficient file
 An unrestricted Hartree-Fock SCF calculation will be
 performed using Pulay DIIS extrapolation
 SCF converges when DIIS error is below 1.0E-08
 using 8 threads for integral computing 
 ---------------------------------------
  Cycle       Energy         DIIS Error
 ---------------------------------------
    1    -435.3437358898      4.60E-06
    2    -435.3437359577      2.87E-06
    3    -435.3437359891      1.93E-06
    4    -435.3437360448      1.03E-06
    5    -435.3437360650      4.11E-07
    6    -435.3437360673      2.06E-07
    7    -435.3437360675      1.21E-07
    8    -435.3437360676      6.32E-08
    9    -435.3437360676      2.69E-08
   10    -435.3437360677      9.95E-09 Convergence criterion met
 ---------------------------------------
 <S^2> = 0.0000
 SCF time:  CPU 11.84 s  wall 2.75 s
 SCF   energy in the final basis set = -435.3437360677
 Total energy in the final basis set = -435.3437360677
================================================================================
|                                                                              |
|                                 A D C  M A N                                 |
|                                                                              |
 ------------------------------------------------------------------------------ 
|                                                                              |
| Components:                                                                  |
|                                                                              |
| - libvmm - 1.2-release                                                       |
|   Authors:                                                                   |
|   Evgeny Epifanovsky, Ilya Kaliman                                           |
|                                                                              |
| - libtensor - 2.4-trunk                                                      |
|   Authors:                                                                   |
|   Evgeny Epifanovsky, Michael Wormit, Dmitry Zuev, Sam Manzer                |
|                                                                              |
| - libwfa - 1.1-beta                                                          |
|   Authors:                                                                   |
|   Felix Plasser, Stefanie Baeppler, Benjamin Thomitzni, Michael Wormit       |
|                                                                              |
| - libadc - 1.0-beta                                                          |
|   Authors:                                                                   |
|   Michael Wormit, Philipp H. P. Harbach, Caroline Krauter, Dirk Rehn,        |
|   Matthias Schneider, Jan Wenzel                                             |
|                                                                              |
| - adcman - 2.4-beta                                                          |
|   Authors:                                                                   |
|   Michael Wormit, Philipp H. P. Harbach, Caroline Krauter, Dirk Rehn,        |
|   Jan Wenzel, Andreas Dreuw                                                  |
|                                                                              |
| Authors of earlier versions of ADCMAN:                                       |
| Andreas Dreuw, Jan Hendrik Starcke, Dirk Rehn, Michael Wormit                |
|                                                                              |
================================================================================

 
 Alpha MOs, Unrestricted
 -- Occupied --                  
-26.532 -26.519 -26.498 -25.974 -11.736  -1.923  -1.829  -1.785
  1 A     2 A     3 A     4 A     5 A     6 A     7 A     8 A                  
 -1.240  -1.098  -1.001  -0.993  -0.937  -0.840  -0.829  -0.812
  9 A    10 A    11 A    12 A    13 A    14 A    15 A    16 A                  
 -0.796  -0.789  -0.345  -0.345  -0.338
 17 A    18 A    19 A    20 A    21 A                                          
 -- Virtual --                   
 -0.085   0.318   0.348   0.372   0.539   0.580   0.624   0.768
 22 A    23 A    24 A    25 A    26 A    27 A    28 A    29 A                  
  1.206   1.210   1.229   1.272   1.287   1.398   1.478   1.505
 30 A    31 A    32 A    33 A    34 A    35 A    36 A    37 A                  
  1.512   1.520   1.531   1.546   1.639   1.747   1.790   1.890
 38 A    39 A    40 A    41 A    42 A    43 A    44 A    45 A                  
  1.900   1.972   1.978   1.989   2.004   2.042   2.051   2.149
 46 A    47 A    48 A    49 A    50 A    51 A    52 A    53 A                  
  2.185   2.200   2.273   2.329   2.398   2.402   2.425   2.524
 54 A    55 A    56 A    57 A    58 A    59 A    60 A    61 A                  
  2.690   2.716   2.807   2.929   3.058   3.111   3.335   3.361
 62 A    63 A    64 A    65 A    66 A    67 A    68 A    69 A                  
  3.522   4.239   4.492   4.630   4.824   6.663
 70 A    71 A    72 A    73 A    74 A    75 A                                  
 
 Beta MOs, Unrestricted
 -- Occupied --                  
-26.532 -26.519 -26.498 -25.974 -11.736  -1.923  -1.829  -1.785
  1 A     2 A     3 A     4 A     5 A     6 A     7 A     8 A                  
 -1.240  -1.098  -1.001  -0.993  -0.937  -0.840  -0.829  -0.812
  9 A    10 A    11 A    12 A    13 A    14 A    15 A    16 A                  
 -0.796  -0.789  -0.345  -0.345  -0.338
 17 A    18 A    19 A    20 A    21 A                                          
 -- Virtual --                   
 -0.085   0.318   0.348   0.372   0.539   0.580   0.624   0.768
 22 A    23 A    24 A    25 A    26 A    27 A    28 A    29 A                  
  1.206   1.210   1.229   1.272   1.287   1.398   1.478   1.505
 30 A    31 A    32 A    33 A    34 A    35 A    36 A    37 A                  
  1.512   1.520   1.531   1.546   1.639   1.747   1.790   1.890
 38 A    39 A    40 A    41 A    42 A    43 A    44 A    45 A                  
  1.900   1.972   1.978   1.989   2.004   2.042   2.051   2.149
 46 A    47 A    48 A    49 A    50 A    51 A    52 A    53 A                  
  2.185   2.200   2.273   2.329   2.398   2.402   2.425   2.524
 54 A    55 A    56 A    57 A    58 A    59 A    60 A    61 A                  
  2.690   2.716   2.807   2.929   3.058   3.111   3.335   3.361
 62 A    63 A    64 A    65 A    66 A    67 A    68 A    69 A                  
  3.522   4.239   4.492   4.630   4.824   6.663
 70 A    71 A    72 A    73 A    74 A    75 A                                  
 

--------------------------------------------------------------------------------
                                   HF Summary                                   
--------------------------------------------------------------------------------
  Energy:                                                 -435.3437360677 a.u.
  Dip. moment [a.u.]:                  [ -56.380586,  183.292758,    1.123759]
  Total dipole [Debye]:                                             487.434362
  <r^2> [a.u.]:                        [ 180.551000,  916.097974,   99.316871]
  Total <r^2> [a.u.]:                                              1195.965845
--------------------------------------------------------------------------------

--------------------------------------------------------------------------------
                                 MP(2) Summary                                  
--------------------------------------------------------------------------------
  Energy contribution:                                      -0.8233553432 a.u.
  Total energy:                                           -436.1670914108 a.u.
  Dip. moment [a.u.]:                  [ -56.200946,  183.771316,    0.937853]
  Total dipole [Debye]:                                             488.460828
  <r^2> [a.u.]:                        [ 179.792682,  920.624629,   99.041639]
  Total <r^2> [a.u.]:                                              1199.458950
--------------------------------------------------------------------------------
  Starting Davidson ... 
--------------------------------------------------------------------------------
   It NVec Conv  Avg. Norm  Max. Norm  Conv. states           Remark
--------------------------------------------------------------------------------
        20    0  2.049e-01  1.051e+00 10.9344 n n n n n n n n Guess.
    1   40    0  6.416e-02  6.535e-01 10.7674 n n n n n n n n 
    2   60    0  4.229e-02  7.877e-01 10.7661 n n n n n n n n 
    3   80    0  3.489e-02  6.935e-01 10.7661 n n n n n n n n 
    4  100    0  3.479e-02  6.944e-01 10.7661 n n n n n n n n 
    5   40    0  3.227e-02  6.444e-01 10.7661 n n n n n n n n Subspace collapsed.
    6   60    0  4.983e-02  7.647e-01 10.7661 n n n n n n n n 
    7   80    0  5.100e-02  7.256e-01 10.7661 n n n n n n n n 
    8  100    2  4.856e-02  7.565e-01 10.7661 y y n n n n n n 
    9   40    7  4.774e-02  7.578e-01 10.7661 y y n y y y y y Subspace collapsed.
   10   60    7  4.629e-02  7.329e-01 10.7661 y y n y y y y y 
   11   80    9  4.443e-02  7.055e-01 10.7661 y y y y y y y y 
   12  100   13  4.258e-02  6.863e-01 10.7661 y y y y y y y y 
   13   40   15  4.148e-02  6.668e-01 10.7661 y y y y y y y y Subspace collapsed.
   14   60   16  4.050e-02  6.534e-01 10.7661 y y y y y y y y 
   15   80   16  3.920e-02  6.292e-01 10.7661 y y y y y y y y 
   16  100   16  3.783e-02  6.006e-01 10.7661 y y y y y y y y 
   17   39   16  3.757e-02  6.038e-01 10.7661 y y y y y y y y Subspace collapsed.
   18   57   16  3.726e-02  6.064e-01 10.7661 y y y y y y y y 
   19   59   16  3.726e-02  6.061e-01 10.7661 y y y y y y y y 
   20   61   16  3.725e-02  6.059e-01 10.7661 y y y y y y y y 
   21   63   16  3.720e-02  6.059e-01 10.7661 y y y y y y y y 
   22   77   16  3.650e-02  5.943e-01 10.7661 y y y y y y y y 
   23   89   16  3.612e-02  5.936e-01 10.7661 y y y y y y y y 
   24  100   16  3.528e-02  5.814e-01 10.7661 y y y y y y y y 
   25   32   16  3.496e-02  5.814e-01 10.7661 y y y y y y y y Subspace collapsed.
   26   44   16  3.410e-02  5.740e-01 10.7661 y y y y y y y y 
   27   56   16  3.331e-02  5.615e-01 10.7661 y y y y y y y y 
   28   67   16  3.289e-02  5.592e-01 10.7661 y y y y y y y y 
   29   68   16  3.284e-02  5.593e-01 10.7661 y y y y y y y y 
   30   68   16  3.284e-02  5.593e-01 10.7661 y y y y y y y y 
   31   73   16  3.283e-02  5.581e-01 10.7661 y y y y y y y y 
   32   73   16  3.283e-02  5.581e-01 10.7661 y y y y y y y y 
   33   74   16  3.281e-02  5.577e-01 10.7661 y y y y y y y y 
   34   74   16  3.281e-02  5.577e-01 10.7661 y y y y y y y y 
   35   74   16  3.281e-02  5.577e-01 10.7661 y y y y y y y y 
   36   94   16  3.176e-02  5.375e-01 10.7661 y y y y y y y y 
   37   95   16  3.175e-02  5.374e-01 10.7661 y y y y y y y y 
   38  100   16  3.040e-02  5.128e-01 10.7661 y y y y y y y y 
   39   26   16  3.037e-02  5.132e-01 10.7661 y y y y y y y y Subspace collapsed.
   40   33   16  3.018e-02  5.134e-01 10.7661 y y y y y y y y 
   41   40   16  2.993e-02  5.074e-01 10.7661 y y y y y y y y 
   42   41   16  2.998e-02  5.082e-01 10.7661 y y y y y y y y 
   43   42   16  2.973e-02  5.069e-01 10.7661 y y y y y y y y 
   44   43   16  2.963e-02  5.052e-01 10.7661 y y y y y y y y 
   45   44   16  2.929e-02  4.982e-01 10.7661 y y y y y y y y 
   46   45   16  2.913e-02  4.968e-01 10.7661 y y y y y y y y 
   47   46   16  2.902e-02  4.959e-01 10.7661 y y y y y y y y 
   48   46   16  2.902e-02  4.959e-01 10.7661 y y y y y y y y 
   49   48   16  2.906e-02  4.959e-01 10.7661 y y y y y y y y 
   50   48   16  2.906e-02  4.959e-01 10.7661 y y y y y y y y 
   51   48   16  2.906e-02  4.959e-01 10.7661 y y y y y y y y 
   52   68   16  2.713e-02  4.638e-01 10.7661 y y y y y y y y 
   53   73   16  2.596e-02  4.389e-01 10.7661 y y y y y y y y 
   54   73   16  2.596e-02  4.389e-01 10.7661 y y y y y y y y 
   55   74   16  2.583e-02  4.361e-01 10.7661 y y y y y y y y 
   56   74   16  2.583e-02  4.361e-01 10.7661 y y y y y y y y 
   57   74   16  2.583e-02  4.361e-01 10.7661 y y y y y y y y 
   58   94   16  2.347e-02  4.003e-01 10.7661 y y y y y y y y 
   59   94   16  2.347e-02  4.003e-01 10.7661 y y y y y y y y 
--------------------------------------------------------------------------------
  Davidson Summary: 
 ------------------------------------------------------------
  State  0: excitation energy =  10.7661 a.u.   (converged)
  State  1: excitation energy =  10.8312 a.u.   (converged)
  State  2: excitation energy =  11.1117 a.u.   (converged)
  State  3: excitation energy =  11.1689 a.u.   (converged)
  State  4: excitation energy =  11.1895 a.u.   (converged)
  State  5: excitation energy =  11.2113 a.u.   (converged)
  State  6: excitation energy =  11.2445 a.u.   (converged)
  State  7: excitation energy =  11.2815 a.u.   (converged)
  State  8: excitation energy =  11.4705 a.u.   (converged)
  State  9: excitation energy =  11.5244 a.u.   (converged)
  State 10: excitation energy =  11.5361 a.u.   (converged)
  State 11: excitation energy =  11.5392 a.u.   (converged)
  State 12: excitation energy =  11.5539 a.u.   (converged)
  State 13: excitation energy =  11.5616 a.u.   (converged)
  State 14: excitation energy =  11.7456 a.u.   (converged)
  State 15: excitation energy =  11.7654 a.u.   (converged)
  State 16: excitation energy =  11.9259 a.u.   (not converged)
  State 17: excitation energy =  11.9753 a.u.   (not converged)
  State 18: excitation energy =  12.1917 a.u.   (not converged)
  State 19: excitation energy =  12.1974 a.u.   (not converged)
 ------------------------------------------------------------


--------------------------------------------------------------------------------
                             Excited State Summary
--------------------------------------------------------------------------------

  Excited state  1 (A)                                             [converged]
  ----------------------------------------------------------------------------
  Term symbol:  2 (-) A                                     R^2 =  1.95574e-12

  Total energy:                                           -425.4010033896 a.u.
  Excitation energy:                                             292.960154 eV

  Osc. strength:                                                      0.000000
  Trans. dip. moment [a.u.]:           [  -0.000000,   -0.000000,    0.000000]
  <i|r^2|0> [a.u.]:                    [   0.000000,   -0.000000,   -0.000000]

  V1^2 = 0.9520, V2^2 = 0.0480

  Important amplitudes:
     core i     occ j      vir a      vir b          v   
    ------------------------------------------------------
     5 (A) B              22 (A) B                -0.6480
     5 (A) A              22 (A) A                 0.6480
    ------------------------------------------------------
  ----------------------------------------------------------------------------


  Excited state  2 (A)                                             [converged]
  ----------------------------------------------------------------------------
  Term symbol:  3 (-) A                                     R^2 =  7.48591e-13

  Total energy:                                           -425.3358672284 a.u.
  Excitation energy:                                             294.732599 eV

  Osc. strength:                                                      0.082378
  Trans. dip. moment [a.u.]:           [  -0.029956,   -0.097961,    0.030244]
  <i|r^2|0> [a.u.]:                    [   0.046802,   -1.109374,   -0.033402]

  V1^2 = 0.9456, V2^2 = 0.0544

  Important amplitudes:
     core i     occ j      vir a      vir b          v   
    ------------------------------------------------------
     5 (A) A              22 (A) A                -0.6611
     5 (A) B              22 (A) B                -0.6611
    ------------------------------------------------------
  ----------------------------------------------------------------------------


  Excited state  3 (A)                                             [converged]
  ----------------------------------------------------------------------------
  Term symbol:  4 (-) A                                     R^2 =  3.86345e-13

  Total energy:                                           -425.0553608725 a.u.
  Excitation energy:                                             302.365565 eV

  Osc. strength:                                                      0.000000
  Trans. dip. moment [a.u.]:           [  -0.000000,    0.000000,   -0.000000]
  <i|r^2|0> [a.u.]:                    [   0.000000,    0.000000,    0.000000]

  V1^2 = 0.9457, V2^2 = 0.0543

  Important amplitudes:
     core i     occ j      vir a      vir b          v   
    ------------------------------------------------------
     5 (A) B              23 (A) B                -0.5807
     5 (A) A              23 (A) A                 0.5807
    ------------------------------------------------------
  ----------------------------------------------------------------------------


  Excited state  4 (A)                                             [converged]
  ----------------------------------------------------------------------------
  Term symbol:  5 (-) A                                     R^2 =  5.26450e-13

  Total energy:                                           -424.9982160644 a.u.
  Excitation energy:                                             303.920555 eV

  Osc. strength:                                                      0.000000
  Trans. dip. moment [a.u.]:           [  -0.000000,   -0.000000,   -0.000000]
  <i|r^2|0> [a.u.]:                    [   0.000000,   -0.000000,    0.000000]

  V1^2 = 0.9418, V2^2 = 0.0582

  Important amplitudes:
     core i     occ j      vir a      vir b          v   
    ------------------------------------------------------
     5 (A) B              24 (A) B                -0.5086
     5 (A) A              24 (A) A                 0.5086
    ------------------------------------------------------
  ----------------------------------------------------------------------------


  Excited state  5 (A)                                             [converged]
  ----------------------------------------------------------------------------
  Term symbol:  6 (-) A                                     R^2 =  6.38481e-13

  Total energy:                                           -424.9775546295 a.u.
  Excitation energy:                                             304.482781 eV

  Osc. strength:                                                      0.100425
  Trans. dip. moment [a.u.]:           [   0.098835,   -0.055843,    0.023989]
  <i|r^2|0> [a.u.]:                    [  -0.175166,   -0.614650,   -0.007347]

  V1^2 = 0.9372, V2^2 = 0.0628

  Important amplitudes:
     core i     occ j      vir a      vir b          v   
    ------------------------------------------------------
     5 (A) A              23 (A) A                 0.6088
     5 (A) B              23 (A) B                 0.6088
    ------------------------------------------------------
  ----------------------------------------------------------------------------


  Excited state  6 (A)                                             [converged]
  ----------------------------------------------------------------------------
  Term symbol:  7 (-) A                                     R^2 =  1.90998e-12

  Total energy:                                           -424.9557912316 a.u.
  Excitation energy:                                             305.074993 eV

  Osc. strength:                                                      0.000000
  Trans. dip. moment [a.u.]:           [   0.000000,   -0.000000,   -0.000000]
  <i|r^2|0> [a.u.]:                    [  -0.000000,   -0.000000,    0.000000]

  V1^2 = 0.9390, V2^2 = 0.0610

  Important amplitudes:
     core i     occ j      vir a      vir b          v   
    ------------------------------------------------------
     5 (A) B              25 (A) B                -0.5121
     5 (A) A              25 (A) A                 0.5121
    ------------------------------------------------------
  ----------------------------------------------------------------------------


  Excited state  7 (A)                                             [converged]
  ----------------------------------------------------------------------------
  Term symbol:  8 (-) A                                     R^2 =  1.18882e-11

  Total energy:                                           -424.9225850618 a.u.
  Excitation energy:                                             305.978579 eV

  Osc. strength:                                                      0.082328
  Trans. dip. moment [a.u.]:           [   0.042358,    0.058176,    0.076183]
  <i|r^2|0> [a.u.]:                    [  -0.089494,    0.636250,   -0.073867]

  V1^2 = 0.9315, V2^2 = 0.0685

  Important amplitudes:
     core i     occ j      vir a      vir b          v   
    ------------------------------------------------------
     5 (A) A              24 (A) A                 0.5525
     5 (A) B              24 (A) B                 0.5525
    ------------------------------------------------------
  ----------------------------------------------------------------------------


  Excited state  8 (A)                                             [converged]
  ----------------------------------------------------------------------------
  Term symbol:  9 (-) A                                     R^2 =  3.05884e-12

  Total energy:                                           -424.8855825328 a.u.
  Excitation energy:                                             306.985469 eV

  Osc. strength:                                                      0.074849
  Trans. dip. moment [a.u.]:           [   0.052694,    0.010235,   -0.084087]
  <i|r^2|0> [a.u.]:                    [  -0.107383,    0.097885,    0.065327]

  V1^2 = 0.9276, V2^2 = 0.0724

  Important amplitudes:
     core i     occ j      vir a      vir b          v   
    ------------------------------------------------------
     5 (A) A              25 (A) A                -0.5608
     5 (A) B              25 (A) B                -0.5608
    ------------------------------------------------------
  ----------------------------------------------------------------------------


  Excited state  9 (A)                                             [converged]
  ----------------------------------------------------------------------------
  Term symbol:  10 (-) A                                    R^2 =  9.03594e-13

  Total energy:                                           -424.6966265051 a.u.
  Excitation energy:                                             312.127224 eV

  Osc. strength:                                                      0.000000
  Trans. dip. moment [a.u.]:           [   0.000000,    0.000000,   -0.000000]
  <i|r^2|0> [a.u.]:                    [   0.000000,    0.000000,    0.000000]

  V1^2 = 0.9166, V2^2 = 0.0834

  Important amplitudes:
     core i     occ j      vir a      vir b          v   
    ------------------------------------------------------
     5 (A) B              26 (A) B                -0.6087
     5 (A) A              26 (A) A                 0.6087
    ------------------------------------------------------
  ----------------------------------------------------------------------------


  Excited state 10 (A)                                             [converged]
  ----------------------------------------------------------------------------
  Term symbol:  11 (-) A                                    R^2 =  2.17994e-12

  Total energy:                                           -424.6427198180 a.u.
  Excitation energy:                                             313.594100 eV

  Osc. strength:                                                      0.021626
  Trans. dip. moment [a.u.]:           [   0.013511,    0.048520,   -0.016675]
  <i|r^2|0> [a.u.]:                    [  -0.002973,    0.566116,    0.034961]

  V1^2 = 0.9164, V2^2 = 0.0836

  Important amplitudes:
     core i     occ j      vir a      vir b          v   
    ------------------------------------------------------
     5 (A) A              26 (A) A                -0.6402
     5 (A) B              26 (A) B                -0.6402
    ------------------------------------------------------
  ----------------------------------------------------------------------------


  Excited state 11 (A)                                             [converged]
  ----------------------------------------------------------------------------
  Term symbol:  12 (-) A                                    R^2 =  4.34049e-13

  Total energy:                                           -424.6310078167 a.u.
  Excitation energy:                                             313.912799 eV

  Osc. strength:                                                      0.000000
  Trans. dip. moment [a.u.]:           [   0.000000,   -0.000000,    0.000000]
  <i|r^2|0> [a.u.]:                    [  -0.000000,   -0.000000,   -0.000000]

  V1^2 = 0.8920, V2^2 = 0.1080

  Important amplitudes:
     core i     occ j      vir a      vir b          v   
    ------------------------------------------------------
     5 (A) B              27 (A) B                 0.5127
     5 (A) A              27 (A) A                -0.5127
    ------------------------------------------------------
  ----------------------------------------------------------------------------


  Excited state 12 (A)                                             [converged]
  ----------------------------------------------------------------------------
  Term symbol:  13 (-) A                                    R^2 =  1.16928e-12

  Total energy:                                           -424.6279211802 a.u.
  Excitation energy:                                             313.996791 eV

  Osc. strength:                                                      0.000000
  Trans. dip. moment [a.u.]:           [   0.000000,    0.000000,    0.000000]
  <i|r^2|0> [a.u.]:                    [  -0.000000,    0.000000,   -0.000000]

  V1^2 = 0.8933, V2^2 = 0.1067

  Important amplitudes:
     core i     occ j      vir a      vir b          v   
    ------------------------------------------------------
     5 (A) B              28 (A) B                 0.4988
     5 (A) A              28 (A) A                -0.4988
    ------------------------------------------------------
  ----------------------------------------------------------------------------


  Excited state 13 (A)                                             [converged]
  ----------------------------------------------------------------------------
  Term symbol:  14 (-) A                                    R^2 =  1.08136e-12

  Total energy:                                           -424.6132189251 a.u.
  Excitation energy:                                             314.396860 eV

  Osc. strength:                                                      0.033755
  Trans. dip. moment [a.u.]:           [   0.060913,   -0.010361,    0.023761]
  <i|r^2|0> [a.u.]:                    [  -0.115015,   -0.117990,   -0.019984]

  V1^2 = 0.8954, V2^2 = 0.1046

  Important amplitudes:
     core i     occ j      vir a      vir b          v   
    ------------------------------------------------------
     5 (A) A              27 (A) A                 0.5620
     5 (A) B              27 (A) B                 0.5620
    ------------------------------------------------------
  ----------------------------------------------------------------------------


  Excited state 14 (A)                                             [converged]
  ----------------------------------------------------------------------------
  Term symbol:  15 (-) A                                    R^2 =  1.80396e-12

  Total energy:                                           -424.6054516633 a.u.
  Excitation energy:                                             314.608218 eV

  Osc. strength:                                                      0.043335
  Trans. dip. moment [a.u.]:           [  -0.020411,    0.029280,    0.065942]
  <i|r^2|0> [a.u.]:                    [   0.039871,    0.330404,   -0.054441]

  V1^2 = 0.8982, V2^2 = 0.1018

  Important amplitudes:
     core i     occ j      vir a      vir b          v   
    ------------------------------------------------------
     5 (A) A              28 (A) A                 0.5582
     5 (A) B              28 (A) B                 0.5582
    ------------------------------------------------------
  ----------------------------------------------------------------------------


  Excited state 15 (A)                                             [converged]
  ----------------------------------------------------------------------------
  Term symbol:  16 (-) A                                    R^2 =  1.78994e-12

  Total energy:                                           -424.4215048910 a.u.
  Excitation energy:                                             319.613664 eV

  Osc. strength:                                                      0.000000
  Trans. dip. moment [a.u.]:           [   0.000000,    0.000000,   -0.000000]
  <i|r^2|0> [a.u.]:                    [  -0.000000,    0.000000,   -0.000000]

  V1^2 = 0.8781, V2^2 = 0.1219

  Important amplitudes:
     core i     occ j      vir a      vir b          v   
    ------------------------------------------------------
     5 (A) B              29 (A) B                 0.6277
     5 (A) A              29 (A) A                -0.6277
    ------------------------------------------------------
  ----------------------------------------------------------------------------


  Excited state 16 (A)                                             [converged]
  ----------------------------------------------------------------------------
  Term symbol:  17 (-) A                                    R^2 =  1.49660e-12

  Total energy:                                           -424.4017359871 a.u.
  Excitation energy:                                             320.151603 eV

  Osc. strength:                                                      0.014342
  Trans. dip. moment [a.u.]:           [  -0.013762,   -0.037708,    0.014737]
  <i|r^2|0> [a.u.]:                    [   0.037623,   -0.411828,   -0.000951]

  V1^2 = 0.8795, V2^2 = 0.1205

  Important amplitudes:
     core i     occ j      vir a      vir b          v   
    ------------------------------------------------------
     5 (A) A              29 (A) A                -0.6440
     5 (A) B              29 (A) B                -0.6440
    ------------------------------------------------------
  ----------------------------------------------------------------------------


  Excited state 17 (A)                                         [not converged]
  ----------------------------------------------------------------------------
  Term symbol:  18 (-) A                                    R^2 =  2.45257e-01

  Total energy:                                           -424.2411562701 a.u.
  Excitation energy:                                             324.521199 eV


  V1^2 = 0.0037, V2^2 = 0.9963

  Important amplitudes:
     core i     occ j      vir a      vir b          v   
    ------------------------------------------------------
     5 (A) B   21 (A) A   22 (A) A   22 (A) B     -0.5381
     5 (A) A   21 (A) B   22 (A) A   22 (A) B      0.4128
    ------------------------------------------------------
  ----------------------------------------------------------------------------


  Excited state 18 (A)                                         [not converged]
  ----------------------------------------------------------------------------
  Term symbol:  19 (-) A                                    R^2 =  4.00324e-01

  Total energy:                                           -424.1917462649 a.u.
  Excitation energy:                                             325.865714 eV


  V1^2 = 0.0118, V2^2 = 0.9882

  Important amplitudes:
     core i     occ j      vir a      vir b          v   
    ------------------------------------------------------
     5 (A) A   21 (A) B   22 (A) A   22 (A) B     -0.5085
     5 (A) B   21 (A) A   22 (A) A   22 (A) B     -0.3881
    ------------------------------------------------------
  ----------------------------------------------------------------------------


  Excited state 19 (A)                                         [not converged]
  ----------------------------------------------------------------------------
  Term symbol:  20 (-) A                                    R^2 =  1.10160e-04

  Total energy:                                           -423.9753487206 a.u.
  Excitation energy:                                             331.754191 eV


  V1^2 = 0.8586, V2^2 = 0.1414

  Important amplitudes:
     core i     occ j      vir a      vir b          v   
    ------------------------------------------------------
     5 (A) B              30 (A) B                -0.4955
     5 (A) A              30 (A) A                 0.4955
    ------------------------------------------------------
  ----------------------------------------------------------------------------


  Excited state 20 (A)                                         [not converged]
  ----------------------------------------------------------------------------
  Term symbol:  21 (-) A                                    R^2 =  2.62537e-04

  Total energy:                                           -423.9697375564 a.u.
  Excitation energy:                                             331.906878 eV


  V1^2 = 0.8575, V2^2 = 0.1425

  Important amplitudes:
     core i     occ j      vir a      vir b          v   
    ------------------------------------------------------
     5 (A) B              30 (A) B                 0.5004
     5 (A) A              30 (A) A                 0.5003
    ------------------------------------------------------
  ----------------------------------------------------------------------------


--------------------------------------------------------------------------------
  Time of ADC calculation:  CPU 3583.50 s  wall 2188.48 s
================================================================================
 
 --------------------------------------------------------------
 
                    Orbital Energies (a.u.)
 --------------------------------------------------------------
 
 Alpha MOs
 -- Occupied --
-26.532 -26.519 -26.498 -25.974 -11.736  -1.923  -1.829  -1.785
 -1.240  -1.098  -1.001  -0.993  -0.937  -0.840  -0.829  -0.812
 -0.796  -0.789  -0.345  -0.345  -0.338
 -- Virtual --
 -0.085   0.318   0.348   0.372   0.539   0.580   0.624   0.768
  1.206   1.210   1.229   1.272   1.287   1.398   1.478   1.505
  1.512   1.520   1.531   1.546   1.639   1.747   1.790   1.890
  1.900   1.972   1.978   1.989   2.004   2.042   2.051   2.149
  2.185   2.200   2.273   2.329   2.398   2.402   2.425   2.524
  2.690   2.716   2.807   2.929   3.058   3.111   3.335   3.361
  3.522   4.239   4.492   4.630   4.824   6.663
 
 Beta MOs
 -- Occupied --
-26.532 -26.519 -26.498 -25.974 -11.736  -1.923  -1.829  -1.785
 -1.240  -1.098  -1.001  -0.993  -0.937  -0.840  -0.829  -0.812
 -0.796  -0.789  -0.345  -0.345  -0.338
 -- Virtual --
 -0.085   0.318   0.348   0.372   0.539   0.580   0.624   0.768
  1.206   1.210   1.229   1.272   1.287   1.398   1.478   1.505
  1.512   1.520   1.531   1.546   1.639   1.747   1.790   1.890
  1.900   1.972   1.978   1.989   2.004   2.042   2.051   2.149
  2.185   2.200   2.273   2.329   2.398   2.402   2.425   2.524
  2.690   2.716   2.807   2.929   3.058   3.111   3.335   3.361
  3.522   4.239   4.492   4.630   4.824   6.663
 --------------------------------------------------------------
 
          Ground-State Mulliken Net Atomic Charges

     Atom                 Charge (a.u.)    Spin (a.u.)
  --------------------------------------------------------
      1 C                     1.229066       0.000000
      2 F                    -0.191625       0.000000
      3 F                    -0.046368       0.000000
      4 F                    -0.867167       0.000000
      5 F                    -0.123906       0.000000
  --------------------------------------------------------
  Sum of atomic charges =     0.000000
  Sum of spin   charges =     0.000000

 -----------------------------------------------------------------
                    Cartesian Multipole Moments
 -----------------------------------------------------------------
    Charge (ESU x 10^10)
                 0.0000
    Dipole Moment (Debye)
         X       3.1774      Y       8.5964      Z      -3.2852
       Tot       9.7358
    Quadrupole Moments (Debye-Ang)
        XX     -29.1385     XY      -1.6033     YY      11.9115
        XZ       3.5834     YZ      -4.9109     ZZ     -23.9905
    Octopole Moments (Debye-Ang^2)
       XXX      57.8992    XXY     -57.0105    XYY       1.3111
       YYY     -42.1102    XXZ      -4.6054    XYZ       3.5988
       YYZ     -11.1680    XZZ      17.4744    YZZ     -53.3250
       ZZZ      -1.5576
    Hexadecapole Moments (Debye-Ang^3)
      XXXX    -169.5555   XXXY     107.7073   XXYY    -165.4662
      XYYY      47.7130   YYYY    -464.4838   XXXZ      12.2457
      XXYZ      -0.2475   XYYZ       6.0414   YYYZ     -23.4659
      XXZZ     -41.2521   XYZZ      33.7991   YYZZ    -152.5318
      XZZZ       7.3565   YZZZ       9.7405   ZZZZ     -82.2472
 -----------------------------------------------------------------
Archival summary:
1\1\tp-linux1\SP\HF\6-31G*\41\thomas\SunMar1911:36:112017SunMar1911:36:112017\0\\#,HF,6-31G*,\\0,1\F\C,1,1.21309\F,2,1.25271,1,116.986\F,2,1.31376,1,114.756,3,137.16,0\F,1,2.24622,2,80.4348,3,-65.3614,0\\HF=-435.343736\\@

 Total job time:  2193.30s(wall), 3599.56s(cpu) 
 Sun Mar 19 11:36:11 2017

        *************************************************************
        *                                                           *
        *  Thank you very much for using Q-Chem.  Have a nice day.  *
        *                                                           *
        *************************************************************


0 sent ACK to 0 
now end server 0 ... 
cleanup process ... done
