
Running Job 1 of 2 ddtraj4t20.inp
qchem ddtraj4t20.inp_2096.0 /scratch/qchem/qchem2096/ 1
/mnt/software/qchem/bin/mpi/mpirun_qchem -machinefile /mnt/software/qchem/bin/mpi/machines -np 1 /mnt/software/qchem/exe/qcprog.exe ddtraj4t20.inp_2096.0 /scratch/qchem/qchem2096/

Process 0 of 1 is on tp-linux1 - thread support 0
initial socket setup ...start
initial socket setup ...done 
now start server 0 ... 

cmd = ssh tp-linux1 /mnt/software/qchem/bin/get_hostid 4037972 > /scratch/qchem/qchem2096/lic.dat
                  Welcome to Q-Chem
     A Quantum Leap Into The Future Of Chemistry


 Q-Chem 4.3, Q-Chem, Inc., Pleasanton, CA (2015)

 Y. Shao,  Z. Gan,  E. Epifanovsky,  A. T. B. Gilbert,  M. Wormit,  
 J. Kussmann,  A. W. Lange,  A. Behn,  J. Deng,  X. Feng,  D. Ghosh,  
 M. Goldey,  P. R. Horn,  L. D. Jacobson,  I. Kaliman,  R. Z. Khaliullin,  
 T. Kus,  A. Landau,  J. Liu,  E. I. Proynov,  Y. M. Rhee,  R. M. Richard,  
 M. A. Rohrdanz,  R. P. Steele,  E. J. Sundstrom,  H. L. Woodcock III,  
 P. M. Zimmerman,  D. Zuev,  B. Albrecht,  E. Alguire,  B. Austin,  
 S. A. Baeppler,  G. J. O. Beran,  Y. A. Bernard,  E. Berquist,  
 K. Brandhorst,  K. B. Bravaya,  S. T. Brown,  D. Casanova,  C.-M. Chang,  
 Y. Chen,  S. H. Chien,  K. D. Closser,  D. L. Crittenden,  M. Diedenhofen,  
 R. A. DiStasio Jr.,  H. Do,  A. D. Dutoi,  R. G. Edgar,  P.-T. Fang,  
 S. Fatehi,  Q. Feng,  L. Fusti-Molnar,  A. Ghysels,  
 A. Golubeva-Zadorozhnaya,  J. Gomes,  A. Gunina,  M. W. D. Hanson-Heine,  
 P. H. P. Harbach,  A. W. Hauser,  E. G. Hohenstein,  Z. C. Holden,  K. Hui,  
 T.-C. Jagau,  H. Ji,  B. Kaduk,  K. Khistyaev,  Jaehoon Kim,  Jihan Kim,  
 R. A. King,  P. Klunzinger,  D. Kosenkov,  T. Kowalczyk,  C. M. Krauter,  
 K. U. Lao,  A. Laurent,  K. V. Lawler,  S. Lehtola,  S. V. Levchenko,  
 C. Y. Lin,  Y.-S. Lin,  F. Liu,  E. Livshits,  R. C. Lochan,  A. Luenser,  
 P. Manohar,  S. F. Manzer,  S.-P. Mao,  N. Mardirossian,  A. V. Marenich,  
 L. A. Martinez-Martinez,  S. A. Maurer,  N. J. Mayhall,  K. Nanda,  
 C. M. Oana,  R. Olivares-Amaya,  D. P. O'Neill,  J. A. Parkhill,  
 T. M. Perrine,  R. Peverati,  P. A. Pieniazek,  F. Plasser,  A. Prociuk,  
 D. R. Rehn,  E. Rosta,  N. J. Russ,  N. Sergueev,  S. M. Sharada,  
 S. Sharma,  D. W. Small,  A. Sodt,  T. Stauch,  T. Stein,  D. Stuck,  
 Y.-C. Su,  A. J. W. Thom,  T. Tsuchimochi,  L. Vogt,  O. Vydrov,  T. Wang,  
 M. A. Watson,  J. Wenzel,  A. White,  C. F. Williams,  V. Vanovschi,  
 S. Yeganeh,  S. R. Yost,  Z.-Q. You,  I. Y. Zhang,  X. Zhang,  Y. Zhao,  
 B. R. Brooks,  G. K. L. Chan,  D. M. Chipman,  C. J. Cramer,  
 W. A. Goddard III,  M. S. Gordon,  W. J. Hehre,  A. Klamt,  
 H. F. Schaefer III,  M. W. Schmidt,  C. D. Sherrill,  D. G. Truhlar,  
 A. Warshel,  X. Xu,  A. Aspuru-Guzik,  R. Baer,  A. T. Bell,  N. A. Besley,  
 J.-D. Chai,  A. Dreuw,  B. D. Dunietz,  T. R. Furlani,  S. R. Gwaltney,  
 C.-P. Hsu,  Y. Jung,  J. Kong,  D. S. Lambrecht,  W. Liang,  C. Ochsenfeld,  
 V. A. Rassolov,  L. V. Slipchenko,  J. E. Subotnik,  T. Van Voorhis,  
 J. M. Herbert,  A. I. Krylov,  P. M. W. Gill,  M. Head-Gordon

 Contributors to earlier versions of Q-Chem not listed above: 
 R. D. Adamson,  J. Baker,  E. F. C. Byrd,  A. K. Chakraborty,  C.-L. Cheng,  
 H. Dachsel,  R. J. Doerksen,  G. Hawkins,  A. Heyden,  S. Hirata,  
 G. Kedziora,  F. J. Keil,  C. Kelley,  P. P. Korambath,  W. Kurlancheek,  
 A. M. Lee,  M. S. Lee,  D. Liotard,  I. Lotan,  P. E. Maslen,  N. Nair,  
 D. Neuhauser,  R. Olson,  B. Peters,  J. Ritchie,  N. E. Schultz,  
 N. Shenvi,  A. C. Simmonett,  K. S. Thanthiriwatte,  Q. Wu,  W. Zhang

 Please cite Q-Chem as follows:
 Y. Shao et al., Mol. Phys. 113, 184-215 (2015)
 DOI: 10.1080/00268976.2014.952696

 Q-Chem 4.3.0 for Intel X86 Linux

 Parts of Q-Chem use Armadillo 5.200.1 (Boston Tea Smuggler).
 http://arma.sourceforge.net/

 Q-Chem begins on Sun Mar 19 12:53:12 2017  

Host: 
0

     Scratch files written to /scratch/qchem/qchem2096//
 Nov1815 1189b_ 19540  19532 5443   
 Parallel job on  1  processors
Processing $rem in /mnt/software/qchem/config/preferences.
 MEM_TOTAL  2000 

Checking the input file for inconsistencies... 	...done.

--------------------------------------------------------------
User input:
--------------------------------------------------------------
$comment
XAS calculation for the 2b valence excited for water using cvs-adc(2)-x + 6-311+G* basis set
job 1 - determination of HF orbitals
$end

$molecule
0 1
6  -0.471225  2.987482  -0.242768
9  0.678316  2.393845  -0.042216
9  -1.125816  3.157022  0.778699
9  -1.386432  0.875094  0.646205
9  -1.093395  2.559039  -1.231487
$end

$rem
jobtype      sp
sym_ignore true
exchange     hf
basis        6-31G*
unrestricted true
$end

--------------------------------------------------------------
 ----------------------------------------------------------------
             Standard Nuclear Orientation (Angstroms)
    I     Atom           X                Y                Z
 ----------------------------------------------------------------
    1      C      -0.4712250000     2.9874820000    -0.2427680000
    2      F       0.6783160000     2.3938450000    -0.0422160000
    3      F      -1.1258160000     3.1570220000     0.7786990000
    4      F      -1.3864320000     0.8750940000     0.6462050000
    5      F      -1.0933950000     2.5590390000    -1.2314870000
 ----------------------------------------------------------------
 Nuclear Repulsion Energy =   192.0049673343 hartrees
 There are       21 alpha and       21 beta electrons
 Requested basis set is 6-31G(d)
 There are 20 shells and 75 basis functions

 Total QAlloc Memory Limit   2000 MB
 Mega-Array Size        61 MB
 MEM_STATIC part        62 MB

                       Distance Matrix (Angstroms)
             C (  1)   F (  2)   F (  3)   F (  4)
   F (  2)  1.309225
   F (  3)  1.225001  2.123966
   F (  4)  2.467805  2.653999  2.300581
   F (  5)  1.244277  2.140237  2.097494  2.539147
 
 tim1(1): 
  0.000000000000000E+000
 tim1(2): 
  0.000000000000000E+000
 A cutoff of  1.0D-08 yielded    196 shell pairs
 There are      2950 function pairs
 
 -------------------------------------------------------
 OpenMP Integral Computing Module                       
 Release: version 1.0, May 2013, Q-Chem Inc. Pittsburgh 
 -------------------------------------------------------
 Integral Job Info:
 Integral job number is                      11
 Integral operator is                         1
 short-range coefficients                     0
 long-range coefficients              100000000
 Omega coefficients                           0
 if combine SR and LR in K                    0
 Integral screening is                        0
 Integral computing path is                   2
 max size of driver memory is            800000
 size of driver memory is                593474
 size of scratch memory is              2260544
 max col of scratch BK array               1296
 max len of scratch array in speh3          155
 max len of scratch index in speh4           18
 max int batch size is                      520
 min int batch size is                       52
 fixed nKL is                                52
 max L of basis functions is                  2
 order of int derivative is                   0
 number of shells is                         20
 number of basis is                          75
 number of cartesian basis is                75
 number of contracted shell pairs           196
 number of primitive shell pairs            950
 maxK2 (contraction) of shell pair           36
 max number of K2 of shell pair               1
 max number of CS2 of shell pair             28
 max number of PS2 of shell pair            180
 mem total for path MDJ                   21832
 -------------------------------------------------------
 Smallest overlap matrix eigenvalue = 1.81E-03

 Scale SEOQF with 1.000000e+00/1.000000e-01/1.000000e+00

 Standard Electronic Orientation quadrupole field applied
 Nucleus-field energy     =     0.0000000098 hartrees
 Guess from superposition of atomic densities
 Warning:  Energy on first SCF cycle will be non-variational
 An unrestricted Hartree-Fock SCF calculation will be
 performed using Pulay DIIS extrapolation
 SCF converges when DIIS error is below 1.0E-05
 using 8 threads for integral computing 
 ---------------------------------------
  Cycle       Energy         DIIS Error
 ---------------------------------------
    1    -436.1248438904      8.48E-02
    2    -435.0548632737      2.21E-02
    3    -433.9447264552      4.06E-02
    4    -435.2605495004      1.19E-02
    5    -435.3015893089      7.34E-03
    6    -435.3294024702      2.67E-03
    7    -435.3340313780      8.79E-04
    8    -435.3351072204      1.81E-04
    9    -435.3354246182      1.74E-04
   10    -435.3355956537      1.33E-04
   11    -435.3356855503      6.05E-05
   12    -435.3357000949      1.41E-05
   13    -435.3357006352      8.13E-06 Convergence criterion met
 ---------------------------------------
 <S^2> = 0.0000
 SCF time:  CPU 13.42 s  wall 3.28 s
 SCF   energy in the final basis set = -435.3357006352
 Total energy in the final basis set = -435.3357006352
 
 --------------------------------------------------------------
 
                    Orbital Energies (a.u.)
 --------------------------------------------------------------
 
 Alpha MOs
 -- Occupied --
-26.532 -26.527 -26.503 -25.977 -11.735  -1.924  -1.832  -1.790
 -1.238  -1.101  -1.003  -0.996  -0.940  -0.844  -0.834  -0.813
 -0.799  -0.792  -0.345  -0.345  -0.332
 -- Virtual --
 -0.094   0.314   0.343   0.369   0.540   0.579   0.615   0.745
  1.207   1.211   1.225   1.269   1.282   1.391   1.477   1.504
  1.508   1.522   1.527   1.537   1.640   1.746   1.792   1.865
  1.885   1.955   1.966   1.977   2.002   2.037   2.047   2.133
  2.191   2.205   2.279   2.309   2.399   2.402   2.415   2.499
  2.682   2.708   2.781   2.910   3.051   3.089   3.330   3.352
  3.508   4.213   4.479   4.615   4.776   6.416
 
 Beta MOs
 -- Occupied --
-26.532 -26.527 -26.503 -25.977 -11.735  -1.924  -1.832  -1.790
 -1.238  -1.101  -1.003  -0.996  -0.940  -0.844  -0.834  -0.813
 -0.799  -0.792  -0.345  -0.345  -0.332
 -- Virtual --
 -0.094   0.314   0.343   0.369   0.540   0.579   0.615   0.745
  1.207   1.211   1.225   1.269   1.282   1.391   1.477   1.504
  1.508   1.522   1.527   1.537   1.640   1.746   1.792   1.865
  1.885   1.955   1.966   1.977   2.002   2.037   2.047   2.133
  2.191   2.205   2.279   2.309   2.399   2.402   2.415   2.499
  2.682   2.708   2.781   2.910   3.051   3.089   3.330   3.352
  3.508   4.213   4.479   4.615   4.776   6.416
 --------------------------------------------------------------
 
          Ground-State Mulliken Net Atomic Charges

     Atom                 Charge (a.u.)    Spin (a.u.)
  --------------------------------------------------------
      1 C                     1.210068       0.000000
      2 F                    -0.186387       0.000000
      3 F                    -0.056795       0.000000
      4 F                    -0.854301       0.000000
      5 F                    -0.112585       0.000000
  --------------------------------------------------------
  Sum of atomic charges =     0.000000
  Sum of spin   charges =     0.000000

 -----------------------------------------------------------------
                    Cartesian Multipole Moments
 -----------------------------------------------------------------
    Charge (ESU x 10^10)
                 0.0000
    Dipole Moment (Debye)
         X       3.3291      Y       8.7438      Z      -3.4937
       Tot       9.9872
    Quadrupole Moments (Debye-Ang)
        XX     -29.4791     XY      -1.5785     YY      12.2088
        XZ       3.8687     YZ      -5.2454     ZZ     -24.0581
    Octopole Moments (Debye-Ang^2)
       XXX      58.6670    XXY     -57.0866    XYY       1.4852
       YYY     -41.3930    XXZ      -5.0990    XYZ       3.8737
       YYZ     -12.2104    XZZ      17.6980    YZZ     -53.1697
       ZZZ      -1.8719
    Hexadecapole Moments (Debye-Ang^3)
      XXXX    -172.6671   XXXY     106.2436   XXYY    -166.8354
      XYYY      46.8394   YYYY    -467.7134   XXXZ      14.1723
      XXYZ      -0.1043   XYYZ       7.0489   YYYZ     -25.3528
      XXZZ     -42.1845   XYZZ      33.2136   YYZZ    -153.1239
      XZZZ       8.7927   YZZZ      10.8985   ZZZZ     -83.7884
 -----------------------------------------------------------------
Archival summary:
1\1\tp-linux1\SP\HF\6-31G*\41\thomas\SunMar1912:53:162017SunMar1912:53:162017\0\\#,HF,6-31G*,\\0,1\F\C,1,1.225\F,2,1.24428,1,116.299\F,2,1.30923,1,113.841,3,135.386,0\F,1,2.30058,2,82.8327,3,-64.0902,0\\HF=-435.335701\\@

 Total job time:  3.59s(wall), 15.14s(cpu) 
 Sun Mar 19 12:53:16 2017

        *************************************************************
        *                                                           *
        *  Thank you very much for using Q-Chem.  Have a nice day.  *
        *                                                           *
        *************************************************************


0 sent ACK to 0 
now end server 0 ... 
cleanup process ... done

Running Job 2 of 2 ddtraj4t20.inp
qchem ddtraj4t20.inp_2096.1 /scratch/qchem/qchem2096/ 1
/mnt/software/qchem/bin/mpi/mpirun_qchem -machinefile /mnt/software/qchem/bin/mpi/machines -np 1 /mnt/software/qchem/exe/qcprog.exe ddtraj4t20.inp_2096.1 /scratch/qchem/qchem2096/

Process 0 of 1 is on tp-linux1 - thread support 0
initial socket setup ...start
initial socket setup ...done 
now start server 0 ... 

cmd = ssh tp-linux1 /mnt/software/qchem/bin/get_hostid 1392264975 > /scratch/qchem/qchem2096/lic.dat
                  Welcome to Q-Chem
     A Quantum Leap Into The Future Of Chemistry


 Q-Chem 4.3, Q-Chem, Inc., Pleasanton, CA (2015)

 Y. Shao,  Z. Gan,  E. Epifanovsky,  A. T. B. Gilbert,  M. Wormit,  
 J. Kussmann,  A. W. Lange,  A. Behn,  J. Deng,  X. Feng,  D. Ghosh,  
 M. Goldey,  P. R. Horn,  L. D. Jacobson,  I. Kaliman,  R. Z. Khaliullin,  
 T. Kus,  A. Landau,  J. Liu,  E. I. Proynov,  Y. M. Rhee,  R. M. Richard,  
 M. A. Rohrdanz,  R. P. Steele,  E. J. Sundstrom,  H. L. Woodcock III,  
 P. M. Zimmerman,  D. Zuev,  B. Albrecht,  E. Alguire,  B. Austin,  
 S. A. Baeppler,  G. J. O. Beran,  Y. A. Bernard,  E. Berquist,  
 K. Brandhorst,  K. B. Bravaya,  S. T. Brown,  D. Casanova,  C.-M. Chang,  
 Y. Chen,  S. H. Chien,  K. D. Closser,  D. L. Crittenden,  M. Diedenhofen,  
 R. A. DiStasio Jr.,  H. Do,  A. D. Dutoi,  R. G. Edgar,  P.-T. Fang,  
 S. Fatehi,  Q. Feng,  L. Fusti-Molnar,  A. Ghysels,  
 A. Golubeva-Zadorozhnaya,  J. Gomes,  A. Gunina,  M. W. D. Hanson-Heine,  
 P. H. P. Harbach,  A. W. Hauser,  E. G. Hohenstein,  Z. C. Holden,  K. Hui,  
 T.-C. Jagau,  H. Ji,  B. Kaduk,  K. Khistyaev,  Jaehoon Kim,  Jihan Kim,  
 R. A. King,  P. Klunzinger,  D. Kosenkov,  T. Kowalczyk,  C. M. Krauter,  
 K. U. Lao,  A. Laurent,  K. V. Lawler,  S. Lehtola,  S. V. Levchenko,  
 C. Y. Lin,  Y.-S. Lin,  F. Liu,  E. Livshits,  R. C. Lochan,  A. Luenser,  
 P. Manohar,  S. F. Manzer,  S.-P. Mao,  N. Mardirossian,  A. V. Marenich,  
 L. A. Martinez-Martinez,  S. A. Maurer,  N. J. Mayhall,  K. Nanda,  
 C. M. Oana,  R. Olivares-Amaya,  D. P. O'Neill,  J. A. Parkhill,  
 T. M. Perrine,  R. Peverati,  P. A. Pieniazek,  F. Plasser,  A. Prociuk,  
 D. R. Rehn,  E. Rosta,  N. J. Russ,  N. Sergueev,  S. M. Sharada,  
 S. Sharma,  D. W. Small,  A. Sodt,  T. Stauch,  T. Stein,  D. Stuck,  
 Y.-C. Su,  A. J. W. Thom,  T. Tsuchimochi,  L. Vogt,  O. Vydrov,  T. Wang,  
 M. A. Watson,  J. Wenzel,  A. White,  C. F. Williams,  V. Vanovschi,  
 S. Yeganeh,  S. R. Yost,  Z.-Q. You,  I. Y. Zhang,  X. Zhang,  Y. Zhao,  
 B. R. Brooks,  G. K. L. Chan,  D. M. Chipman,  C. J. Cramer,  
 W. A. Goddard III,  M. S. Gordon,  W. J. Hehre,  A. Klamt,  
 H. F. Schaefer III,  M. W. Schmidt,  C. D. Sherrill,  D. G. Truhlar,  
 A. Warshel,  X. Xu,  A. Aspuru-Guzik,  R. Baer,  A. T. Bell,  N. A. Besley,  
 J.-D. Chai,  A. Dreuw,  B. D. Dunietz,  T. R. Furlani,  S. R. Gwaltney,  
 C.-P. Hsu,  Y. Jung,  J. Kong,  D. S. Lambrecht,  W. Liang,  C. Ochsenfeld,  
 V. A. Rassolov,  L. V. Slipchenko,  J. E. Subotnik,  T. Van Voorhis,  
 J. M. Herbert,  A. I. Krylov,  P. M. W. Gill,  M. Head-Gordon

 Contributors to earlier versions of Q-Chem not listed above: 
 R. D. Adamson,  J. Baker,  E. F. C. Byrd,  A. K. Chakraborty,  C.-L. Cheng,  
 H. Dachsel,  R. J. Doerksen,  G. Hawkins,  A. Heyden,  S. Hirata,  
 G. Kedziora,  F. J. Keil,  C. Kelley,  P. P. Korambath,  W. Kurlancheek,  
 A. M. Lee,  M. S. Lee,  D. Liotard,  I. Lotan,  P. E. Maslen,  N. Nair,  
 D. Neuhauser,  R. Olson,  B. Peters,  J. Ritchie,  N. E. Schultz,  
 N. Shenvi,  A. C. Simmonett,  K. S. Thanthiriwatte,  Q. Wu,  W. Zhang

 Please cite Q-Chem as follows:
 Y. Shao et al., Mol. Phys. 113, 184-215 (2015)
 DOI: 10.1080/00268976.2014.952696

 Q-Chem 4.3.0 for Intel X86 Linux

 Parts of Q-Chem use Armadillo 5.200.1 (Boston Tea Smuggler).
 http://arma.sourceforge.net/

 Q-Chem begins on Sun Mar 19 12:53:19 2017  

Host: 
0

     Scratch files written to /scratch/qchem/qchem2096//
 Nov1815 1189b_ 19540  19532 5443   
 Parallel job on  1  processors
Processing $rem in /mnt/software/qchem/config/preferences.
 MEM_TOTAL  2000 

Checking the input file for inconsistencies... 	...done.

--------------------------------------------------------------
User input:
--------------------------------------------------------------

$comment
job3 - cvs-adc(2) calculation
$end

$molecule
read
$end

$rem
mem_total 3000
mem_static 1500
sym_ignore true
scf_guess read
method cvs-adc(2)
basis 6-31G*
ee_singlets 20
cc_rest_occ 5                  !only excitations from the lowest N orbitals
unrestricted  true
max_scf_cycles 200
$end
--------------------------------------------------------------
 ----------------------------------------------------------------
             Standard Nuclear Orientation (Angstroms)
    I     Atom           X                Y                Z
 ----------------------------------------------------------------
    1      C      -0.4712250000     2.9874820000    -0.2427680000
    2      F       0.6783160000     2.3938450000    -0.0422160000
    3      F      -1.1258160000     3.1570220000     0.7786990000
    4      F      -1.3864320000     0.8750940000     0.6462050000
    5      F      -1.0933950000     2.5590390000    -1.2314870000
 ----------------------------------------------------------------
 Nuclear Repulsion Energy =   192.0049673343 hartrees
 There are       21 alpha and       21 beta electrons
 Requested basis set is 6-31G(d)
 There are 20 shells and 75 basis functions

 Total QAlloc Memory Limit   3000 MB
 Mega-Array Size      1467 MB
 MEM_STATIC part      1500 MB

                       Distance Matrix (Angstroms)
             C (  1)   F (  2)   F (  3)   F (  4)
   F (  2)  1.309225
   F (  3)  1.225001  2.123966
   F (  4)  2.467805  2.653999  2.300581
   F (  5)  1.244277  2.140237  2.097494  2.539147
 
 tim1(1): 
  0.000000000000000E+000
 tim1(2): 
  0.000000000000000E+000
 A cutoff of  1.0D-11 yielded    199 shell pairs
 There are      2962 function pairs
 
 -------------------------------------------------------
 OpenMP Integral Computing Module                       
 Release: version 1.0, May 2013, Q-Chem Inc. Pittsburgh 
 -------------------------------------------------------
 Integral Job Info:
 Integral job number is                      11
 Integral operator is                         1
 short-range coefficients                     0
 long-range coefficients              100000000
 Omega coefficients                           0
 if combine SR and LR in K                    0
 Integral screening is                        0
 Integral computing path is                   2
 max size of driver memory is            800000
 size of driver memory is                593474
 size of scratch memory is              2260544
 max col of scratch BK array               1296
 max len of scratch array in speh3          155
 max len of scratch index in speh4           18
 max int batch size is                      520
 min int batch size is                       52
 fixed nKL is                                52
 max L of basis functions is                  2
 order of int derivative is                   0
 number of shells is                         20
 number of basis is                          75
 number of cartesian basis is                75
 number of contracted shell pairs           199
 number of primitive shell pairs           1026
 maxK2 (contraction) of shell pair           36
 max number of K2 of shell pair               1
 max number of CS2 of shell pair             34
 max number of PS2 of shell pair            204
 mem total for path MDJ                   21832
 -------------------------------------------------------
 Smallest overlap matrix eigenvalue = 1.81E-03

 Scale SEOQF with 1.000000e+00/1.000000e-01/1.000000e+00

 Standard Electronic Orientation quadrupole field applied
 Nucleus-field energy     =     0.0000000098 hartrees
 Guess MOs from SCF MO coefficient file
 Reading MOs from coefficient file
 Reading MOs from coefficient file
 An unrestricted Hartree-Fock SCF calculation will be
 performed using Pulay DIIS extrapolation
 SCF converges when DIIS error is below 1.0E-08
 using 8 threads for integral computing 
 ---------------------------------------
  Cycle       Energy         DIIS Error
 ---------------------------------------
    1    -435.3357009950      4.29E-06
    2    -435.3357011183      3.35E-06
    3    -435.3357011891      2.73E-06
    4    -435.3357013680      8.51E-07
    5    -435.3357013786      3.81E-07
    6    -435.3357013791      1.69E-07
    7    -435.3357013792      9.61E-08
    8    -435.3357013793      5.88E-08
    9    -435.3357013793      2.25E-08
   10    -435.3357013793      7.66E-09 Convergence criterion met
 ---------------------------------------
 <S^2> = 0.0000
 SCF time:  CPU 9.99 s  wall 2.66 s
 SCF   energy in the final basis set = -435.3357013793
 Total energy in the final basis set = -435.3357013793
================================================================================
|                                                                              |
|                                 A D C  M A N                                 |
|                                                                              |
 ------------------------------------------------------------------------------ 
|                                                                              |
| Components:                                                                  |
|                                                                              |
| - libvmm - 1.2-release                                                       |
|   Authors:                                                                   |
|   Evgeny Epifanovsky, Ilya Kaliman                                           |
|                                                                              |
| - libtensor - 2.4-trunk                                                      |
|   Authors:                                                                   |
|   Evgeny Epifanovsky, Michael Wormit, Dmitry Zuev, Sam Manzer                |
|                                                                              |
| - libwfa - 1.1-beta                                                          |
|   Authors:                                                                   |
|   Felix Plasser, Stefanie Baeppler, Benjamin Thomitzni, Michael Wormit       |
|                                                                              |
| - libadc - 1.0-beta                                                          |
|   Authors:                                                                   |
|   Michael Wormit, Philipp H. P. Harbach, Caroline Krauter, Dirk Rehn,        |
|   Matthias Schneider, Jan Wenzel                                             |
|                                                                              |
| - adcman - 2.4-beta                                                          |
|   Authors:                                                                   |
|   Michael Wormit, Philipp H. P. Harbach, Caroline Krauter, Dirk Rehn,        |
|   Jan Wenzel, Andreas Dreuw                                                  |
|                                                                              |
| Authors of earlier versions of ADCMAN:                                       |
| Andreas Dreuw, Jan Hendrik Starcke, Dirk Rehn, Michael Wormit                |
|                                                                              |
================================================================================

 
 Alpha MOs, Unrestricted
 -- Occupied --                  
-26.532 -26.527 -26.503 -25.977 -11.735  -1.924  -1.832  -1.790
  1 A     2 A     3 A     4 A     5 A     6 A     7 A     8 A                  
 -1.238  -1.101  -1.003  -0.996  -0.940  -0.844  -0.834  -0.813
  9 A    10 A    11 A    12 A    13 A    14 A    15 A    16 A                  
 -0.799  -0.792  -0.345  -0.345  -0.332
 17 A    18 A    19 A    20 A    21 A                                          
 -- Virtual --                   
 -0.094   0.315   0.343   0.369   0.540   0.579   0.615   0.745
 22 A    23 A    24 A    25 A    26 A    27 A    28 A    29 A                  
  1.207   1.211   1.225   1.269   1.282   1.391   1.477   1.504
 30 A    31 A    32 A    33 A    34 A    35 A    36 A    37 A                  
  1.508   1.522   1.527   1.537   1.640   1.746   1.792   1.865
 38 A    39 A    40 A    41 A    42 A    43 A    44 A    45 A                  
  1.885   1.955   1.966   1.977   2.002   2.037   2.047   2.133
 46 A    47 A    48 A    49 A    50 A    51 A    52 A    53 A                  
  2.191   2.205   2.279   2.309   2.399   2.402   2.415   2.499
 54 A    55 A    56 A    57 A    58 A    59 A    60 A    61 A                  
  2.682   2.708   2.781   2.910   3.051   3.089   3.330   3.352
 62 A    63 A    64 A    65 A    66 A    67 A    68 A    69 A                  
  3.508   4.213   4.479   4.615   4.776   6.416
 70 A    71 A    72 A    73 A    74 A    75 A                                  
 
 Beta MOs, Unrestricted
 -- Occupied --                  
-26.532 -26.527 -26.503 -25.977 -11.735  -1.924  -1.832  -1.790
  1 A     2 A     3 A     4 A     5 A     6 A     7 A     8 A                  
 -1.238  -1.101  -1.003  -0.996  -0.940  -0.844  -0.834  -0.813
  9 A    10 A    11 A    12 A    13 A    14 A    15 A    16 A                  
 -0.799  -0.792  -0.345  -0.345  -0.332
 17 A    18 A    19 A    20 A    21 A                                          
 -- Virtual --                   
 -0.094   0.315   0.343   0.369   0.540   0.579   0.615   0.745
 22 A    23 A    24 A    25 A    26 A    27 A    28 A    29 A                  
  1.207   1.211   1.225   1.269   1.282   1.391   1.477   1.504
 30 A    31 A    32 A    33 A    34 A    35 A    36 A    37 A                  
  1.508   1.522   1.527   1.537   1.640   1.746   1.792   1.865
 38 A    39 A    40 A    41 A    42 A    43 A    44 A    45 A                  
  1.885   1.955   1.966   1.977   2.002   2.037   2.047   2.133
 46 A    47 A    48 A    49 A    50 A    51 A    52 A    53 A                  
  2.191   2.205   2.279   2.309   2.399   2.402   2.415   2.499
 54 A    55 A    56 A    57 A    58 A    59 A    60 A    61 A                  
  2.682   2.708   2.781   2.910   3.051   3.089   3.330   3.352
 62 A    63 A    64 A    65 A    66 A    67 A    68 A    69 A                  
  3.508   4.213   4.479   4.615   4.776   6.416
 70 A    71 A    72 A    73 A    74 A    75 A                                  
 

--------------------------------------------------------------------------------
                                   HF Summary                                   
--------------------------------------------------------------------------------
  Energy:                                                 -435.3357013793 a.u.
  Dip. moment [a.u.]:                  [ -56.439158,  183.245959,    1.193402]
  Total dipole [Debye]:                                             487.365540
  <r^2> [a.u.]:                        [ 182.399789,  921.744594,  100.857638]
  Total <r^2> [a.u.]:                                              1205.002020
--------------------------------------------------------------------------------

--------------------------------------------------------------------------------
                                 MP(2) Summary                                  
--------------------------------------------------------------------------------
  Energy contribution:                                      -0.8288919998 a.u.
  Total energy:                                           -436.1645933791 a.u.
  Dip. moment [a.u.]:                  [ -56.138552,  184.006792,    0.886060]
  Total dipole [Debye]:                                             488.986280
  <r^2> [a.u.]:                        [ 181.304124,  928.522610,  100.572339]
  Total <r^2> [a.u.]:                                              1210.399074
--------------------------------------------------------------------------------
  Starting Davidson ... 
--------------------------------------------------------------------------------
   It NVec Conv  Avg. Norm  Max. Norm  Conv. states           Remark
--------------------------------------------------------------------------------
        20    0  2.054e-01  1.057e+00 10.9385 n n n n n n n n Guess.
    1   40    0  6.445e-02  7.797e-01 10.7676 n n n n n n n n 
    2   60    0  4.458e-02  7.046e-01 10.7663 n n n n n n n n 
    3   80    0  2.901e-02  4.975e-01 10.7663 n n n n n n n n 
    4  100    0  2.624e-02  4.617e-01 10.7663 n n n n n n n n 
    5   40    0  2.557e-02  4.583e-01 10.7663 n n n n n n n n Subspace collapsed.
    6   60    0  2.354e-02  4.360e-01 10.7663 n n n n n n n n 
    7   80    0  2.088e-02  3.855e-01 10.7663 n n n n n n n n 
    8  100    2  1.976e-02  3.624e-01 10.7663 y y n n n n n n 
    9   40    3  1.872e-02  3.465e-01 10.7663 y y n n n y n n Subspace collapsed.
   10   60    6  4.370e-02  7.982e-01 10.7663 y y n y n y y y 
   11   80    9  3.474e-02  6.099e-01 10.7663 y y y y y y y y 
   12  100   11  2.813e-02  4.688e-01 10.7663 y y y y y y y y 
   13   40   13  2.475e-02  4.099e-01 10.7663 y y y y y y y y Subspace collapsed.
   14   60   14  2.442e-02  4.094e-01 10.7663 y y y y y y y y 
   15   80   14  2.015e-02  3.019e-01 10.7663 y y y y y y y y 
   16  100   15  1.751e-02  2.698e-01 10.7663 y y y y y y y y 
   17   38   15  1.658e-02  2.510e-01 10.7663 y y y y y y y y Subspace collapsed.
   18   56   15  1.595e-02  2.376e-01 10.7663 y y y y y y y y 
   19   59   15  1.591e-02  2.371e-01 10.7663 y y y y y y y y 
   20   75   16  1.497e-02  2.202e-01 10.7663 y y y y y y y y 
   21   89   16  3.873e-02  7.221e-01 10.7663 y y y y y y y y 
   22  100   16  1.722e-02  2.884e-01 10.7663 y y y y y y y y 
   23   32   16  1.337e-02  2.030e-01 10.7663 y y y y y y y y Subspace collapsed.
   24   43   16  7.767e-03  1.540e-01 10.7663 y y y y y y y y 
   25   43   16  7.767e-03  1.540e-01 10.7663 y y y y y y y y 
   26   63   16  6.772e-03  1.350e-01 10.7663 y y y y y y y y 
   27   74   16  3.333e-03  6.647e-02 10.7663 y y y y y y y y 
   28   78   16  3.033e-03  6.048e-02 10.7663 y y y y y y y y 
   29   78   16  3.033e-03  6.048e-02 10.7663 y y y y y y y y 
   30   79   16  3.023e-03  6.027e-02 10.7663 y y y y y y y y 
   31   82   16  2.842e-03  5.668e-02 10.7663 y y y y y y y y 
   32   82   16  2.842e-03  5.668e-02 10.7663 y y y y y y y y 
   33   82   16  2.842e-03  5.668e-02 10.7663 y y y y y y y y 
   34  100   16  1.876e-03  3.738e-02 10.7663 y y y y y y y y 
   35   22   16  1.877e-03  3.741e-02 10.7663 y y y y y y y y Subspace collapsed.
   36   22   16  1.877e-03  3.741e-02 10.7663 y y y y y y y y 
   37   24   16  1.865e-03  3.717e-02 10.7663 y y y y y y y y 
   38   24   16  1.865e-03  3.717e-02 10.7663 y y y y y y y y 
   39   25   16  1.866e-03  3.719e-02 10.7663 y y y y y y y y 
   40   32   16  1.625e-03  3.247e-02 10.7663 y y y y y y y y 
   41   39   16  1.116e-03  2.231e-02 10.7663 y y y y y y y y 
   42   45   16  8.609e-04  1.721e-02 10.7663 y y y y y y y y 
   43   51   16  7.829e-04  1.565e-02 10.7663 y y y y y y y y 
   44   57   16  3.155e-04  6.307e-03 10.7663 y y y y y y y y 
   45   63   16  1.416e-04  2.829e-03 10.7663 y y y y y y y y 
   46   69   16  7.068e-05  1.412e-03 10.7663 y y y y y y y y 
   47   75   16  3.172e-05  6.337e-04 10.7663 y y y y y y y y 
   48   81   17  1.223e-05  2.443e-04 10.7663 y y y y y y y y 
   49   87   17  3.947e-06  7.885e-05 10.7663 y y y y y y y y 
   50   93   17  1.028e-03  2.056e-02 10.7663 y y y y y y y y 
   51   93   17  1.028e-03  2.056e-02 10.7663 y y y y y y y y 
   52   93   17  1.028e-03  2.056e-02 10.7663 y y y y y y y y 
   53  100   17  9.893e-04  1.979e-02 10.7663 y y y y y y y y 
   54   20   17  9.893e-04  1.979e-02 10.7663 y y y y y y y y Subspace collapsed.
   55   20   17  9.893e-04  1.979e-02 10.7663 y y y y y y y y 
   56   22   17  9.865e-04  1.973e-02 10.7663 y y y y y y y y 
   57   23   17  9.856e-04  1.971e-02 10.7663 y y y y y y y y 
   58   30   18  9.168e-04  1.834e-02 10.7663 y y y y y y y y 
   59   30   18  9.168e-04  1.834e-02 10.7663 y y y y y y y y 
--------------------------------------------------------------------------------
  Davidson Summary: 
 ------------------------------------------------------------
  State  0: excitation energy =  10.7663 a.u.   (converged)
  State  1: excitation energy =  10.8301 a.u.   (converged)
  State  2: excitation energy =  11.1102 a.u.   (converged)
  State  3: excitation energy =  11.1716 a.u.   (converged)
  State  4: excitation energy =  11.1873 a.u.   (converged)
  State  5: excitation energy =  11.1943 a.u.   (converged)
  State  6: excitation energy =  11.2453 a.u.   (converged)
  State  7: excitation energy =  11.2662 a.u.   (converged)
  State  8: excitation energy =  11.4679 a.u.   (converged)
  State  9: excitation energy =  11.5219 a.u.   (converged)
  State 10: excitation energy =  11.5272 a.u.   (converged)
  State 11: excitation energy =  11.5295 a.u.   (converged)
  State 12: excitation energy =  11.5458 a.u.   (converged)
  State 13: excitation energy =  11.5517 a.u.   (converged)
  State 14: excitation energy =  11.7135 a.u.   (converged)
  State 15: excitation energy =  11.7337 a.u.   (converged)
  State 16: excitation energy =  11.8795 a.u.   (not converged)
  State 17: excitation energy =  11.8799 a.u.   (converged)
  State 18: excitation energy =  11.8927 a.u.   (not converged)
  State 19: excitation energy =  11.8927 a.u.   (converged)
 ------------------------------------------------------------


--------------------------------------------------------------------------------
                             Excited State Summary
--------------------------------------------------------------------------------

  Excited state  1 (A)                                             [converged]
  ----------------------------------------------------------------------------
  Term symbol:  2 (-) A                                     R^2 =  1.10843e-13

  Total energy:                                           -425.3983090204 a.u.
  Excitation energy:                                             292.965497 eV

  Osc. strength:                                                      0.000000
  Trans. dip. moment [a.u.]:           [   0.000000,    0.000000,   -0.000000]
  <i|r^2|0> [a.u.]:                    [  -0.000000,    0.000000,    0.000000]

  V1^2 = 0.9505, V2^2 = 0.0495

  Important amplitudes:
     core i     occ j      vir a      vir b          v   
    ------------------------------------------------------
     5 (A) A              22 (A) A                 0.6485
     5 (A) B              22 (A) B                -0.6485
    ------------------------------------------------------
  ----------------------------------------------------------------------------


  Excited state  2 (A)                                             [converged]
  ----------------------------------------------------------------------------
  Term symbol:  3 (-) A                                     R^2 =  3.96316e-13

  Total energy:                                           -425.3345287659 a.u.
  Excitation energy:                                             294.701046 eV

  Osc. strength:                                                      0.077705
  Trans. dip. moment [a.u.]:           [   0.028298,    0.095535,   -0.028891]
  <i|r^2|0> [a.u.]:                    [  -0.042305,    1.090485,    0.034269]

  V1^2 = 0.9436, V2^2 = 0.0564

  Important amplitudes:
     core i     occ j      vir a      vir b          v   
    ------------------------------------------------------
     5 (A) B              22 (A) B                 0.6612
     5 (A) A              22 (A) A                 0.6612
    ------------------------------------------------------
  ----------------------------------------------------------------------------


  Excited state  3 (A)                                             [converged]
  ----------------------------------------------------------------------------
  Term symbol:  4 (-) A                                     R^2 =  2.18369e-13

  Total energy:                                           -425.0543700325 a.u.
  Excitation energy:                                             302.324553 eV

  Osc. strength:                                                      0.000000
  Trans. dip. moment [a.u.]:           [  -0.000000,    0.000000,   -0.000000]
  <i|r^2|0> [a.u.]:                    [   0.000000,    0.000000,    0.000000]

  V1^2 = 0.9449, V2^2 = 0.0551

  Important amplitudes:
     core i     occ j      vir a      vir b          v   
    ------------------------------------------------------
     5 (A) B              23 (A) B                -0.5715
     5 (A) A              23 (A) A                 0.5715
    ------------------------------------------------------
  ----------------------------------------------------------------------------


  Excited state  4 (A)                                             [converged]
  ----------------------------------------------------------------------------
  Term symbol:  5 (-) A                                     R^2 =  3.93014e-13

  Total energy:                                           -424.9930284139 a.u.
  Excitation energy:                                             303.993743 eV

  Osc. strength:                                                      0.000000
  Trans. dip. moment [a.u.]:           [   0.000000,   -0.000000,    0.000000]
  <i|r^2|0> [a.u.]:                    [  -0.000000,   -0.000000,   -0.000000]

  V1^2 = 0.9417, V2^2 = 0.0583

  Important amplitudes:
     core i     occ j      vir a      vir b          v   
    ------------------------------------------------------
     5 (A) A              24 (A) A                -0.4844
     5 (A) B              24 (A) B                 0.4844
    ------------------------------------------------------
  ----------------------------------------------------------------------------


  Excited state  5 (A)                                             [converged]
  ----------------------------------------------------------------------------
  Term symbol:  6 (-) A                                     R^2 =  2.15856e-13

  Total energy:                                           -424.9773012293 a.u.
  Excitation energy:                                             304.421701 eV

  Osc. strength:                                                      0.100843
  Trans. dip. moment [a.u.]:           [   0.100158,   -0.055810,    0.019358]
  <i|r^2|0> [a.u.]:                    [  -0.173139,   -0.619812,   -0.005055]

  V1^2 = 0.9362, V2^2 = 0.0638

  Important amplitudes:
     core i     occ j      vir a      vir b          v   
    ------------------------------------------------------
     5 (A) B              23 (A) B                 0.6023
     5 (A) A              23 (A) A                 0.6023
    ------------------------------------------------------
  ----------------------------------------------------------------------------


  Excited state  6 (A)                                             [converged]
  ----------------------------------------------------------------------------
  Term symbol:  7 (-) A                                     R^2 =  2.91484e-13

  Total energy:                                           -424.9702822751 a.u.
  Excitation energy:                                             304.612697 eV

  Osc. strength:                                                      0.000000
  Trans. dip. moment [a.u.]:           [   0.000000,   -0.000000,    0.000000]
  <i|r^2|0> [a.u.]:                    [  -0.000000,   -0.000000,   -0.000000]

  V1^2 = 0.9363, V2^2 = 0.0637

  Important amplitudes:
     core i     occ j      vir a      vir b          v   
    ------------------------------------------------------
     5 (A) B              25 (A) B                 0.5165
     5 (A) A              25 (A) A                -0.5165
    ------------------------------------------------------
  ----------------------------------------------------------------------------


  Excited state  7 (A)                                             [converged]
  ----------------------------------------------------------------------------
  Term symbol:  8 (-) A                                     R^2 =  7.74055e-13

  Total energy:                                           -424.9193196310 a.u.
  Excitation energy:                                             305.999461 eV

  Osc. strength:                                                      0.089242
  Trans. dip. moment [a.u.]:           [  -0.035363,   -0.055380,   -0.087100]
  <i|r^2|0> [a.u.]:                    [   0.072642,   -0.612995,    0.087340]

  V1^2 = 0.9318, V2^2 = 0.0682

  Important amplitudes:
     core i     occ j      vir a      vir b          v   
    ------------------------------------------------------
     5 (A) B              24 (A) B                -0.5412
     5 (A) A              24 (A) A                -0.5412
    ------------------------------------------------------
  ----------------------------------------------------------------------------


  Excited state  8 (A)                                             [converged]
  ----------------------------------------------------------------------------
  Term symbol:  9 (-) A                                     R^2 =  4.91127e-13

  Total energy:                                           -424.8983634220 a.u.
  Excitation energy:                                             306.569708 eV

  Osc. strength:                                                      0.067021
  Trans. dip. moment [a.u.]:           [   0.054775,    0.021291,   -0.073957]
  <i|r^2|0> [a.u.]:                    [  -0.110440,    0.220891,    0.059687]

  V1^2 = 0.9238, V2^2 = 0.0762

  Important amplitudes:
     core i     occ j      vir a      vir b          v   
    ------------------------------------------------------
     5 (A) B              25 (A) B                -0.5728
     5 (A) A              25 (A) A                -0.5728
    ------------------------------------------------------
  ----------------------------------------------------------------------------


  Excited state  9 (A)                                             [converged]
  ----------------------------------------------------------------------------
  Term symbol:  10 (-) A                                    R^2 =  3.88566e-13

  Total energy:                                           -424.6967303691 a.u.
  Excitation energy:                                             312.056423 eV

  Osc. strength:                                                      0.000000
  Trans. dip. moment [a.u.]:           [   0.000000,   -0.000000,    0.000000]
  <i|r^2|0> [a.u.]:                    [  -0.000000,   -0.000000,   -0.000000]

  V1^2 = 0.9148, V2^2 = 0.0852

  Important amplitudes:
     core i     occ j      vir a      vir b          v   
    ------------------------------------------------------
     5 (A) B              26 (A) B                 0.6110
     5 (A) A              26 (A) A                -0.6110
    ------------------------------------------------------
  ----------------------------------------------------------------------------


  Excited state 10 (A)                                             [converged]
  ----------------------------------------------------------------------------
  Term symbol:  11 (-) A                                    R^2 =  1.14320e-12

  Total energy:                                           -424.6426997812 a.u.
  Excitation energy:                                             313.526670 eV

  Osc. strength:                                                      0.022159
  Trans. dip. moment [a.u.]:           [  -0.013795,   -0.048999,    0.017134]
  <i|r^2|0> [a.u.]:                    [   0.002843,   -0.575696,   -0.036617]

  V1^2 = 0.9145, V2^2 = 0.0855

  Important amplitudes:
     core i     occ j      vir a      vir b          v   
    ------------------------------------------------------
     5 (A) A              26 (A) A                 0.6417
     5 (A) B              26 (A) B                 0.6417
    ------------------------------------------------------
  ----------------------------------------------------------------------------


  Excited state 11 (A)                                             [converged]
  ----------------------------------------------------------------------------
  Term symbol:  12 (-) A                                    R^2 =  4.52090e-13

  Total energy:                                           -424.6373513683 a.u.
  Excitation energy:                                             313.672208 eV

  Osc. strength:                                                      0.000000
  Trans. dip. moment [a.u.]:           [   0.000000,    0.000000,   -0.000000]
  <i|r^2|0> [a.u.]:                    [   0.000000,    0.000000,    0.000000]

  V1^2 = 0.8898, V2^2 = 0.1102

  Important amplitudes:
     core i     occ j      vir a      vir b          v   
    ------------------------------------------------------
     5 (A) A              27 (A) A                -0.4953
     5 (A) B              27 (A) B                 0.4953
    ------------------------------------------------------
  ----------------------------------------------------------------------------


  Excited state 12 (A)                                             [converged]
  ----------------------------------------------------------------------------
  Term symbol:  13 (-) A                                    R^2 =  6.88308e-13

  Total energy:                                           -424.6350871617 a.u.
  Excitation energy:                                             313.733820 eV

  Osc. strength:                                                      0.000000
  Trans. dip. moment [a.u.]:           [   0.000000,   -0.000000,    0.000000]
  <i|r^2|0> [a.u.]:                    [  -0.000000,   -0.000000,   -0.000000]

  V1^2 = 0.8907, V2^2 = 0.1093

  Important amplitudes:
     core i     occ j      vir a      vir b          v   
    ------------------------------------------------------
     5 (A) B              28 (A) B                 0.4983
     5 (A) A              28 (A) A                -0.4983
    ------------------------------------------------------
  ----------------------------------------------------------------------------


  Excited state 13 (A)                                             [converged]
  ----------------------------------------------------------------------------
  Term symbol:  14 (-) A                                    R^2 =  4.51336e-13

  Total energy:                                           -424.6187874492 a.u.
  Excitation energy:                                             314.177358 eV

  Osc. strength:                                                      0.035088
  Trans. dip. moment [a.u.]:           [  -0.064617,    0.015647,   -0.011766]
  <i|r^2|0> [a.u.]:                    [   0.118812,    0.178762,    0.010804]

  V1^2 = 0.8934, V2^2 = 0.1066

  Important amplitudes:
     core i     occ j      vir a      vir b          v   
    ------------------------------------------------------
     5 (A) B              27 (A) B                -0.5599
     5 (A) A              27 (A) A                -0.5599
    ------------------------------------------------------
  ----------------------------------------------------------------------------


  Excited state 14 (A)                                             [converged]
  ----------------------------------------------------------------------------
  Term symbol:  15 (-) A                                    R^2 =  5.49006e-13

  Total energy:                                           -424.6129260868 a.u.
  Excitation energy:                                             314.336853 eV

  Osc. strength:                                                      0.043113
  Trans. dip. moment [a.u.]:           [  -0.007244,    0.026839,    0.069466]
  <i|r^2|0> [a.u.]:                    [   0.013930,    0.303948,   -0.062745]

  V1^2 = 0.8957, V2^2 = 0.1043

  Important amplitudes:
     core i     occ j      vir a      vir b          v   
    ------------------------------------------------------
     5 (A) A              28 (A) A                 0.5622
     5 (A) B              28 (A) B                 0.5622
    ------------------------------------------------------
  ----------------------------------------------------------------------------


  Excited state 15 (A)                                             [converged]
  ----------------------------------------------------------------------------
  Term symbol:  16 (-) A                                    R^2 =  1.77784e-12

  Total energy:                                           -424.4510595532 a.u.
  Excitation energy:                                             318.741466 eV

  Osc. strength:                                                      0.000000
  Trans. dip. moment [a.u.]:           [   0.000000,    0.000000,   -0.000000]
  <i|r^2|0> [a.u.]:                    [  -0.000000,    0.000000,   -0.000000]

  V1^2 = 0.8726, V2^2 = 0.1274

  Important amplitudes:
     core i     occ j      vir a      vir b          v   
    ------------------------------------------------------
     5 (A) A              29 (A) A                 0.6229
     5 (A) B              29 (A) B                -0.6229
    ------------------------------------------------------
  ----------------------------------------------------------------------------


  Excited state 16 (A)                                             [converged]
  ----------------------------------------------------------------------------
  Term symbol:  17 (-) A                                    R^2 =  1.06227e-11

  Total energy:                                           -424.4309235636 a.u.
  Excitation energy:                                             319.289394 eV

  Osc. strength:                                                      0.014477
  Trans. dip. moment [a.u.]:           [  -0.014216,   -0.037811,    0.014796]
  <i|r^2|0> [a.u.]:                    [   0.038038,   -0.416069,   -0.001669]

  V1^2 = 0.8742, V2^2 = 0.1258

  Important amplitudes:
     core i     occ j      vir a      vir b          v   
    ------------------------------------------------------
     5 (A) B              29 (A) B                -0.6411
     5 (A) A              29 (A) A                -0.6411
    ------------------------------------------------------
  ----------------------------------------------------------------------------


  Excited state 17 (A)                                         [not converged]
  ----------------------------------------------------------------------------
  Term symbol:  18 (-) A                                    R^2 =  1.03445e-05

  Total energy:                                           -424.2850957510 a.u.
  Excitation energy:                                             323.257570 eV


  V1^2 = 0.0026, V2^2 = 0.9974

  Important amplitudes:
     core i     occ j      vir a      vir b          v   
    ------------------------------------------------------
     5 (A) B   21 (A) A   22 (A) A   22 (A) B      0.4993
     5 (A) A   21 (A) B   22 (A) A   22 (A) B      0.4993
    ------------------------------------------------------
  ----------------------------------------------------------------------------


  Excited state 18 (A)                                             [converged]
  ----------------------------------------------------------------------------
  Term symbol:  19 (-) A                                    R^2 =  5.51019e-08

  Total energy:                                           -424.2846859664 a.u.
  Excitation energy:                                             323.268721 eV

  Osc. strength:                                                      0.000013
  Trans. dip. moment [a.u.]:           [  -0.000022,   -0.001286,    0.000187]
  <i|r^2|0> [a.u.]:                    [  -0.001558,   -0.015112,   -0.001771]

  V1^2 = 0.0032, V2^2 = 0.9968

  Important amplitudes:
     core i     occ j      vir a      vir b          v   
    ------------------------------------------------------
     5 (A) A   21 (A) B   22 (A) A   22 (A) B     -0.4991
     5 (A) B   21 (A) A   22 (A) A   22 (A) B      0.4991
    ------------------------------------------------------
  ----------------------------------------------------------------------------


  Excited state 19 (A)                                         [not converged]
  ----------------------------------------------------------------------------
  Term symbol:  20 (-) A                                    R^2 =  1.83366e-02

  Total energy:                                           -424.2719311438 a.u.
  Excitation energy:                                             323.615798 eV


  V1^2 = 0.0000, V2^2 = 1.0000

  Important amplitudes:
     core i     occ j      vir a      vir b          v   
    ------------------------------------------------------
     5 (A) A   20 (A) B   22 (A) A   22 (A) B      0.6984
     5 (A) B   20 (A) A   22 (A) A   22 (A) B     -0.1100
    ------------------------------------------------------
  ----------------------------------------------------------------------------


  Excited state 20 (A)                                             [converged]
  ----------------------------------------------------------------------------
  Term symbol:  21 (-) A                                    R^2 =  3.72752e-07

  Total energy:                                           -424.2719017818 a.u.
  Excitation energy:                                             323.616597 eV

  Osc. strength:                                                      0.000000
  Trans. dip. moment [a.u.]:           [  -0.000000,   -0.000000,   -0.000000]
  <i|r^2|0> [a.u.]:                    [   0.000000,   -0.000000,    0.000000]

  V1^2 = 0.0001, V2^2 = 0.9999

  Important amplitudes:
     core i     occ j      vir a      vir b          v   
    ------------------------------------------------------
     5 (A) A   19 (A) B   22 (A) A   22 (A) B     -0.4999
     5 (A) B   19 (A) A   22 (A) A   22 (A) B     -0.4999
    ------------------------------------------------------
  ----------------------------------------------------------------------------


--------------------------------------------------------------------------------
  Time of ADC calculation:  CPU 3230.49 s  wall 1959.63 s
================================================================================
 
 --------------------------------------------------------------
 
                    Orbital Energies (a.u.)
 --------------------------------------------------------------
 
 Alpha MOs
 -- Occupied --
-26.532 -26.527 -26.503 -25.977 -11.735  -1.924  -1.832  -1.790
 -1.238  -1.101  -1.003  -0.996  -0.940  -0.844  -0.834  -0.813
 -0.799  -0.792  -0.345  -0.345  -0.332
 -- Virtual --
 -0.094   0.315   0.343   0.369   0.540   0.579   0.615   0.745
  1.207   1.211   1.225   1.269   1.282   1.391   1.477   1.504
  1.508   1.522   1.527   1.537   1.640   1.746   1.792   1.865
  1.885   1.955   1.966   1.977   2.002   2.037   2.047   2.133
  2.191   2.205   2.279   2.309   2.399   2.402   2.415   2.499
  2.682   2.708   2.781   2.910   3.051   3.089   3.330   3.352
  3.508   4.213   4.479   4.615   4.776   6.416
 
 Beta MOs
 -- Occupied --
-26.532 -26.527 -26.503 -25.977 -11.735  -1.924  -1.832  -1.790
 -1.238  -1.101  -1.003  -0.996  -0.940  -0.844  -0.834  -0.813
 -0.799  -0.792  -0.345  -0.345  -0.332
 -- Virtual --
 -0.094   0.315   0.343   0.369   0.540   0.579   0.615   0.745
  1.207   1.211   1.225   1.269   1.282   1.391   1.477   1.504
  1.508   1.522   1.527   1.537   1.640   1.746   1.792   1.865
  1.885   1.955   1.966   1.977   2.002   2.037   2.047   2.133
  2.191   2.205   2.279   2.309   2.399   2.402   2.415   2.499
  2.682   2.708   2.781   2.910   3.051   3.089   3.330   3.352
  3.508   4.213   4.479   4.615   4.776   6.416
 --------------------------------------------------------------
 
          Ground-State Mulliken Net Atomic Charges

     Atom                 Charge (a.u.)    Spin (a.u.)
  --------------------------------------------------------
      1 C                     1.209978       0.000000
      2 F                    -0.186372       0.000000
      3 F                    -0.056778       0.000000
      4 F                    -0.854284       0.000000
      5 F                    -0.112544       0.000000
  --------------------------------------------------------
  Sum of atomic charges =     0.000000
  Sum of spin   charges =     0.000000

 -----------------------------------------------------------------
                    Cartesian Multipole Moments
 -----------------------------------------------------------------
    Charge (ESU x 10^10)
                 0.0000
    Dipole Moment (Debye)
         X       3.3287      Y       8.7433      Z      -3.4935
       Tot       9.9865
    Quadrupole Moments (Debye-Ang)
        XX     -29.4787     XY      -1.5789     YY      12.2063
        XZ       3.8686     YZ      -5.2449     ZZ     -24.0580
    Octopole Moments (Debye-Ang^2)
       XXX      58.6666    XXY     -57.0866    XYY       1.4839
       YYY     -41.4051    XXZ      -5.0989    XYZ       3.8743
       YYZ     -12.2078    XZZ      17.6975    YZZ     -53.1700
       ZZZ      -1.8719
    Hexadecapole Moments (Debye-Ang^3)
      XXXX    -172.6666   XXXY     106.2447   XXYY    -166.8343
      XYYY      46.8355   YYYY    -467.7662   XXXZ      14.1719
      XXYZ      -0.1053   XYYZ       7.0499   YYYZ     -25.3407
      XXZZ     -42.1842   XYZZ      33.2130   YYZZ    -153.1247
      XZZZ       8.7930   YZZZ      10.8976   ZZZZ     -83.7878
 -----------------------------------------------------------------
Archival summary:
1\1\tp-linux1\SP\HF\6-31G*\41\thomas\SunMar1913:26:032017SunMar1913:26:032017\0\\#,HF,6-31G*,\\0,1\F\C,1,1.225\F,2,1.24428,1,116.299\F,2,1.30923,1,113.841,3,135.386,0\F,1,2.30058,2,82.8327,3,-64.0902,0\\HF=-435.335701\\@

 Total job time:  1964.51s(wall), 3244.02s(cpu) 
 Sun Mar 19 13:26:03 2017

        *************************************************************
        *                                                           *
        *  Thank you very much for using Q-Chem.  Have a nice day.  *
        *                                                           *
        *************************************************************


0 sent ACK to 0 
now end server 0 ... 
cleanup process ... done
