
Running Job 1 of 2 ddtraj5t31.inp
qchem ddtraj5t31.inp_14814.0 /scratch/qchem/qchem14814/ 1
/mnt/software/qchem/bin/mpi/mpirun_qchem -machinefile /mnt/software/qchem/bin/mpi/machines -np 1 /mnt/software/qchem/exe/qcprog.exe ddtraj5t31.inp_14814.0 /scratch/qchem/qchem14814/

Process 0 of 1 is on tp-linux1 - thread support 0
initial socket setup ...start
initial socket setup ...done 
now start server 0 ... 

cmd = ssh tp-linux1 /mnt/software/qchem/bin/get_hostid 27223264 > /scratch/qchem/qchem14814/lic.dat
                  Welcome to Q-Chem
     A Quantum Leap Into The Future Of Chemistry


 Q-Chem 4.3, Q-Chem, Inc., Pleasanton, CA (2015)

 Y. Shao,  Z. Gan,  E. Epifanovsky,  A. T. B. Gilbert,  M. Wormit,  
 J. Kussmann,  A. W. Lange,  A. Behn,  J. Deng,  X. Feng,  D. Ghosh,  
 M. Goldey,  P. R. Horn,  L. D. Jacobson,  I. Kaliman,  R. Z. Khaliullin,  
 T. Kus,  A. Landau,  J. Liu,  E. I. Proynov,  Y. M. Rhee,  R. M. Richard,  
 M. A. Rohrdanz,  R. P. Steele,  E. J. Sundstrom,  H. L. Woodcock III,  
 P. M. Zimmerman,  D. Zuev,  B. Albrecht,  E. Alguire,  B. Austin,  
 S. A. Baeppler,  G. J. O. Beran,  Y. A. Bernard,  E. Berquist,  
 K. Brandhorst,  K. B. Bravaya,  S. T. Brown,  D. Casanova,  C.-M. Chang,  
 Y. Chen,  S. H. Chien,  K. D. Closser,  D. L. Crittenden,  M. Diedenhofen,  
 R. A. DiStasio Jr.,  H. Do,  A. D. Dutoi,  R. G. Edgar,  P.-T. Fang,  
 S. Fatehi,  Q. Feng,  L. Fusti-Molnar,  A. Ghysels,  
 A. Golubeva-Zadorozhnaya,  J. Gomes,  A. Gunina,  M. W. D. Hanson-Heine,  
 P. H. P. Harbach,  A. W. Hauser,  E. G. Hohenstein,  Z. C. Holden,  K. Hui,  
 T.-C. Jagau,  H. Ji,  B. Kaduk,  K. Khistyaev,  Jaehoon Kim,  Jihan Kim,  
 R. A. King,  P. Klunzinger,  D. Kosenkov,  T. Kowalczyk,  C. M. Krauter,  
 K. U. Lao,  A. Laurent,  K. V. Lawler,  S. Lehtola,  S. V. Levchenko,  
 C. Y. Lin,  Y.-S. Lin,  F. Liu,  E. Livshits,  R. C. Lochan,  A. Luenser,  
 P. Manohar,  S. F. Manzer,  S.-P. Mao,  N. Mardirossian,  A. V. Marenich,  
 L. A. Martinez-Martinez,  S. A. Maurer,  N. J. Mayhall,  K. Nanda,  
 C. M. Oana,  R. Olivares-Amaya,  D. P. O'Neill,  J. A. Parkhill,  
 T. M. Perrine,  R. Peverati,  P. A. Pieniazek,  F. Plasser,  A. Prociuk,  
 D. R. Rehn,  E. Rosta,  N. J. Russ,  N. Sergueev,  S. M. Sharada,  
 S. Sharma,  D. W. Small,  A. Sodt,  T. Stauch,  T. Stein,  D. Stuck,  
 Y.-C. Su,  A. J. W. Thom,  T. Tsuchimochi,  L. Vogt,  O. Vydrov,  T. Wang,  
 M. A. Watson,  J. Wenzel,  A. White,  C. F. Williams,  V. Vanovschi,  
 S. Yeganeh,  S. R. Yost,  Z.-Q. You,  I. Y. Zhang,  X. Zhang,  Y. Zhao,  
 B. R. Brooks,  G. K. L. Chan,  D. M. Chipman,  C. J. Cramer,  
 W. A. Goddard III,  M. S. Gordon,  W. J. Hehre,  A. Klamt,  
 H. F. Schaefer III,  M. W. Schmidt,  C. D. Sherrill,  D. G. Truhlar,  
 A. Warshel,  X. Xu,  A. Aspuru-Guzik,  R. Baer,  A. T. Bell,  N. A. Besley,  
 J.-D. Chai,  A. Dreuw,  B. D. Dunietz,  T. R. Furlani,  S. R. Gwaltney,  
 C.-P. Hsu,  Y. Jung,  J. Kong,  D. S. Lambrecht,  W. Liang,  C. Ochsenfeld,  
 V. A. Rassolov,  L. V. Slipchenko,  J. E. Subotnik,  T. Van Voorhis,  
 J. M. Herbert,  A. I. Krylov,  P. M. W. Gill,  M. Head-Gordon

 Contributors to earlier versions of Q-Chem not listed above: 
 R. D. Adamson,  J. Baker,  E. F. C. Byrd,  A. K. Chakraborty,  C.-L. Cheng,  
 H. Dachsel,  R. J. Doerksen,  G. Hawkins,  A. Heyden,  S. Hirata,  
 G. Kedziora,  F. J. Keil,  C. Kelley,  P. P. Korambath,  W. Kurlancheek,  
 A. M. Lee,  M. S. Lee,  D. Liotard,  I. Lotan,  P. E. Maslen,  N. Nair,  
 D. Neuhauser,  R. Olson,  B. Peters,  J. Ritchie,  N. E. Schultz,  
 N. Shenvi,  A. C. Simmonett,  K. S. Thanthiriwatte,  Q. Wu,  W. Zhang

 Please cite Q-Chem as follows:
 Y. Shao et al., Mol. Phys. 113, 184-215 (2015)
 DOI: 10.1080/00268976.2014.952696

 Q-Chem 4.3.0 for Intel X86 Linux

 Parts of Q-Chem use Armadillo 5.200.1 (Boston Tea Smuggler).
 http://arma.sourceforge.net/

 Q-Chem begins on Tue Mar 21 02:21:49 2017  

Host: 
0

     Scratch files written to /scratch/qchem/qchem14814//
 Nov1815 1189b_ 19540  19532 5443   
 Parallel job on  1  processors
Processing $rem in /mnt/software/qchem/config/preferences.
 MEM_TOTAL  2000 

Checking the input file for inconsistencies... 	...done.

--------------------------------------------------------------
User input:
--------------------------------------------------------------
$comment
XAS calculation for the 2b valence excited for water using cvs-adc(2)-x + 6-311+G* basis set
job 1 - determination of HF orbitals
$end

$molecule
0 1
6  -0.616443  2.836859  -0.13416
9  0.490849  2.376953  0.027331
9  -1.05419  3.600769  0.659587
9  -1.177433  0.342153  0.624181
9  -1.113953  2.772401  -1.222543
$end

$rem
jobtype      sp
sym_ignore true
exchange     hf
basis        6-31G*
unrestricted true
$end

--------------------------------------------------------------
 ----------------------------------------------------------------
             Standard Nuclear Orientation (Angstroms)
    I     Atom           X                Y                Z
 ----------------------------------------------------------------
    1      C      -0.6164430000     2.8368590000    -0.1341600000
    2      F       0.4908490000     2.3769530000     0.0273310000
    3      F      -1.0541900000     3.6007690000     0.6595870000
    4      F      -1.1774330000     0.3421530000     0.6241810000
    5      F      -1.1139530000     2.7724010000    -1.2225430000
 ----------------------------------------------------------------
 Nuclear Repulsion Energy =   187.5818954570 hartrees
 There are       21 alpha and       21 beta electrons
 Requested basis set is 6-31G(d)
 There are 20 shells and 75 basis functions

 Total QAlloc Memory Limit   2000 MB
 Mega-Array Size        61 MB
 MEM_STATIC part        62 MB

                       Distance Matrix (Angstroms)
             C (  1)   F (  2)   F (  3)   F (  4)
   F (  2)  1.209830
   F (  3)  1.185418  2.069932
   F (  4)  2.667086  2.698112  3.261138
   F (  5)  1.198436  2.072186  2.057226  3.052953
 
 tim1(1): 
  3.999999999999997E-003
 tim1(2): 
  0.000000000000000E+000
 A cutoff of  1.0D-08 yielded    186 shell pairs
 There are      2834 function pairs
 
 -------------------------------------------------------
 OpenMP Integral Computing Module                       
 Release: version 1.0, May 2013, Q-Chem Inc. Pittsburgh 
 -------------------------------------------------------
 Integral Job Info:
 Integral job number is                      11
 Integral operator is                         1
 short-range coefficients                     0
 long-range coefficients              100000000
 Omega coefficients                           0
 if combine SR and LR in K                    0
 Integral screening is                        0
 Integral computing path is                   2
 max size of driver memory is            800000
 size of driver memory is                593474
 size of scratch memory is              2260544
 max col of scratch BK array               1296
 max len of scratch array in speh3          155
 max len of scratch index in speh4           18
 max int batch size is                      520
 min int batch size is                       52
 fixed nKL is                                52
 max L of basis functions is                  2
 order of int derivative is                   0
 number of shells is                         20
 number of basis is                          75
 number of cartesian basis is                75
 number of contracted shell pairs           186
 number of primitive shell pairs            912
 maxK2 (contraction) of shell pair           36
 max number of K2 of shell pair               1
 max number of CS2 of shell pair             27
 max number of PS2 of shell pair            180
 mem total for path MDJ                   19336
 -------------------------------------------------------
 Smallest overlap matrix eigenvalue = 3.47E-03

 Scale SEOQF with 1.000000e+00/1.000000e-01/1.000000e+00

 Standard Electronic Orientation quadrupole field applied
 Nucleus-field energy     =     0.0000000115 hartrees
 Guess from superposition of atomic densities
 Warning:  Energy on first SCF cycle will be non-variational
 An unrestricted Hartree-Fock SCF calculation will be
 performed using Pulay DIIS extrapolation
 SCF converges when DIIS error is below 1.0E-05
 using 8 threads for integral computing 
 ---------------------------------------
  Cycle       Energy         DIIS Error
 ---------------------------------------
    1    -436.5927557279      9.69E-02
    2    -435.1522254320      2.08E-02
    3    -435.2575957082      1.62E-02
    4    -435.3877739405      2.34E-03
    5    -435.3907115881      6.80E-04
    6    -435.3910853674      1.75E-04
    7    -435.3911364559      5.87E-05
    8    -435.3911470365      3.19E-05
    9    -435.3911498307      9.76E-06 Convergence criterion met
 ---------------------------------------
 <S^2> = 0.0000
 SCF time:  CPU 10.43 s  wall 2.21 s
 SCF   energy in the final basis set = -435.3911498307
 Total energy in the final basis set = -435.3911498307
 
 --------------------------------------------------------------
 
                    Orbital Energies (a.u.)
 --------------------------------------------------------------
 
 Alpha MOs
 -- Occupied --
-26.554 -26.540 -26.520 -26.002 -11.738  -1.988  -1.883  -1.858
 -1.248  -1.131  -1.056  -1.048  -0.997  -0.881  -0.877  -0.857
 -0.836  -0.818  -0.359  -0.359  -0.338
 -- Virtual --
  0.040   0.229   0.420   0.430   0.575   0.629   0.648   0.691
  1.173   1.191   1.210   1.285   1.325   1.406   1.456   1.458
  1.487   1.493   1.504   1.556   1.594   1.712   1.750   1.816
  1.851   1.917   1.945   1.956   1.990   2.101   2.111   2.184
  2.191   2.196   2.285   2.295   2.390   2.391   2.410   2.424
  2.473   2.687   2.912   2.923   3.243   3.267   3.456   3.463
  3.501   4.121   4.482   5.000   5.075   5.227
 
 Beta MOs
 -- Occupied --
-26.554 -26.540 -26.520 -26.002 -11.738  -1.988  -1.883  -1.858
 -1.248  -1.131  -1.056  -1.048  -0.997  -0.881  -0.877  -0.857
 -0.836  -0.818  -0.359  -0.359  -0.338
 -- Virtual --
  0.040   0.229   0.420   0.430   0.575   0.629   0.648   0.691
  1.173   1.191   1.210   1.285   1.325   1.406   1.456   1.458
  1.487   1.493   1.504   1.556   1.594   1.712   1.750   1.816
  1.851   1.917   1.945   1.956   1.990   2.101   2.111   2.184
  2.191   2.196   2.285   2.295   2.390   2.391   2.410   2.424
  2.473   2.687   2.912   2.923   3.243   3.267   3.456   3.463
  3.501   4.121   4.482   5.000   5.075   5.227
 --------------------------------------------------------------
 
          Ground-State Mulliken Net Atomic Charges

     Atom                 Charge (a.u.)    Spin (a.u.)
  --------------------------------------------------------
      1 C                     1.084278       0.000000
      2 F                    -0.098182       0.000000
      3 F                    -0.088688       0.000000
      4 F                    -0.797727       0.000000
      5 F                    -0.099682       0.000000
  --------------------------------------------------------
  Sum of atomic charges =     0.000000
  Sum of spin   charges =     0.000000

 -----------------------------------------------------------------
                    Cartesian Multipole Moments
 -----------------------------------------------------------------
    Charge (ESU x 10^10)
                 0.0000
    Dipole Moment (Debye)
         X       2.0797      Y       9.4941      Z      -2.8277
       Tot      10.1222
    Quadrupole Moments (Debye-Ang)
        XX     -26.4275     XY      -5.0833     YY       8.2024
        XZ       2.9698     YZ      -2.3350     ZZ     -24.0721
    Octopole Moments (Debye-Ang^2)
       XXX      54.4554    XXY     -49.5188    XYY      -2.1274
       YYY     -64.6772    XXZ      -3.8430    XYZ       1.4821
       YYZ      -4.9681    XZZ      17.7275    YZZ     -51.8465
       ZZZ      -2.7756
    Hexadecapole Moments (Debye-Ang^3)
      XXXX    -142.4035   XXXY     102.8789   XXYY    -162.3167
      XYYY      50.2301   YYYY    -637.4700   XXXZ       6.1816
      XXYZ       3.3806   XYYZ       1.2961   YYYZ       1.4883
      XXZZ     -36.8352   XYZZ      34.0028   YYZZ    -161.3736
      XZZZ       3.8201   YZZZ      12.9792   ZZZZ     -75.9653
 -----------------------------------------------------------------
Archival summary:
1\1\tp-linux1\SP\HF\6-31G*\41\thomas\TueMar2102:21:522017TueMar2102:21:522017\0\\#,HF,6-31G*,\\0,1\C\F,1,1.18542\F,1,1.19844,2,119.305\F,1,1.20983,2,119.576,3,-162.253,0\F,1,2.66709,2,109.555,3,110.251,0\\HF=-435.39115\\@

 Total job time:  2.51s(wall), 12.15s(cpu) 
 Tue Mar 21 02:21:52 2017

        *************************************************************
        *                                                           *
        *  Thank you very much for using Q-Chem.  Have a nice day.  *
        *                                                           *
        *************************************************************


0 sent ACK to 0 
now end server 0 ... 
cleanup process ... done

Running Job 2 of 2 ddtraj5t31.inp
qchem ddtraj5t31.inp_14814.1 /scratch/qchem/qchem14814/ 1
/mnt/software/qchem/bin/mpi/mpirun_qchem -machinefile /mnt/software/qchem/bin/mpi/machines -np 1 /mnt/software/qchem/exe/qcprog.exe ddtraj5t31.inp_14814.1 /scratch/qchem/qchem14814/

Process 0 of 1 is on tp-linux1 - thread support 0
initial socket setup ...start
initial socket setup ...done 
now start server 0 ... 

cmd = ssh tp-linux1 /mnt/software/qchem/bin/get_hostid 1733855488 > /scratch/qchem/qchem14814/lic.dat
                  Welcome to Q-Chem
     A Quantum Leap Into The Future Of Chemistry


 Q-Chem 4.3, Q-Chem, Inc., Pleasanton, CA (2015)

 Y. Shao,  Z. Gan,  E. Epifanovsky,  A. T. B. Gilbert,  M. Wormit,  
 J. Kussmann,  A. W. Lange,  A. Behn,  J. Deng,  X. Feng,  D. Ghosh,  
 M. Goldey,  P. R. Horn,  L. D. Jacobson,  I. Kaliman,  R. Z. Khaliullin,  
 T. Kus,  A. Landau,  J. Liu,  E. I. Proynov,  Y. M. Rhee,  R. M. Richard,  
 M. A. Rohrdanz,  R. P. Steele,  E. J. Sundstrom,  H. L. Woodcock III,  
 P. M. Zimmerman,  D. Zuev,  B. Albrecht,  E. Alguire,  B. Austin,  
 S. A. Baeppler,  G. J. O. Beran,  Y. A. Bernard,  E. Berquist,  
 K. Brandhorst,  K. B. Bravaya,  S. T. Brown,  D. Casanova,  C.-M. Chang,  
 Y. Chen,  S. H. Chien,  K. D. Closser,  D. L. Crittenden,  M. Diedenhofen,  
 R. A. DiStasio Jr.,  H. Do,  A. D. Dutoi,  R. G. Edgar,  P.-T. Fang,  
 S. Fatehi,  Q. Feng,  L. Fusti-Molnar,  A. Ghysels,  
 A. Golubeva-Zadorozhnaya,  J. Gomes,  A. Gunina,  M. W. D. Hanson-Heine,  
 P. H. P. Harbach,  A. W. Hauser,  E. G. Hohenstein,  Z. C. Holden,  K. Hui,  
 T.-C. Jagau,  H. Ji,  B. Kaduk,  K. Khistyaev,  Jaehoon Kim,  Jihan Kim,  
 R. A. King,  P. Klunzinger,  D. Kosenkov,  T. Kowalczyk,  C. M. Krauter,  
 K. U. Lao,  A. Laurent,  K. V. Lawler,  S. Lehtola,  S. V. Levchenko,  
 C. Y. Lin,  Y.-S. Lin,  F. Liu,  E. Livshits,  R. C. Lochan,  A. Luenser,  
 P. Manohar,  S. F. Manzer,  S.-P. Mao,  N. Mardirossian,  A. V. Marenich,  
 L. A. Martinez-Martinez,  S. A. Maurer,  N. J. Mayhall,  K. Nanda,  
 C. M. Oana,  R. Olivares-Amaya,  D. P. O'Neill,  J. A. Parkhill,  
 T. M. Perrine,  R. Peverati,  P. A. Pieniazek,  F. Plasser,  A. Prociuk,  
 D. R. Rehn,  E. Rosta,  N. J. Russ,  N. Sergueev,  S. M. Sharada,  
 S. Sharma,  D. W. Small,  A. Sodt,  T. Stauch,  T. Stein,  D. Stuck,  
 Y.-C. Su,  A. J. W. Thom,  T. Tsuchimochi,  L. Vogt,  O. Vydrov,  T. Wang,  
 M. A. Watson,  J. Wenzel,  A. White,  C. F. Williams,  V. Vanovschi,  
 S. Yeganeh,  S. R. Yost,  Z.-Q. You,  I. Y. Zhang,  X. Zhang,  Y. Zhao,  
 B. R. Brooks,  G. K. L. Chan,  D. M. Chipman,  C. J. Cramer,  
 W. A. Goddard III,  M. S. Gordon,  W. J. Hehre,  A. Klamt,  
 H. F. Schaefer III,  M. W. Schmidt,  C. D. Sherrill,  D. G. Truhlar,  
 A. Warshel,  X. Xu,  A. Aspuru-Guzik,  R. Baer,  A. T. Bell,  N. A. Besley,  
 J.-D. Chai,  A. Dreuw,  B. D. Dunietz,  T. R. Furlani,  S. R. Gwaltney,  
 C.-P. Hsu,  Y. Jung,  J. Kong,  D. S. Lambrecht,  W. Liang,  C. Ochsenfeld,  
 V. A. Rassolov,  L. V. Slipchenko,  J. E. Subotnik,  T. Van Voorhis,  
 J. M. Herbert,  A. I. Krylov,  P. M. W. Gill,  M. Head-Gordon

 Contributors to earlier versions of Q-Chem not listed above: 
 R. D. Adamson,  J. Baker,  E. F. C. Byrd,  A. K. Chakraborty,  C.-L. Cheng,  
 H. Dachsel,  R. J. Doerksen,  G. Hawkins,  A. Heyden,  S. Hirata,  
 G. Kedziora,  F. J. Keil,  C. Kelley,  P. P. Korambath,  W. Kurlancheek,  
 A. M. Lee,  M. S. Lee,  D. Liotard,  I. Lotan,  P. E. Maslen,  N. Nair,  
 D. Neuhauser,  R. Olson,  B. Peters,  J. Ritchie,  N. E. Schultz,  
 N. Shenvi,  A. C. Simmonett,  K. S. Thanthiriwatte,  Q. Wu,  W. Zhang

 Please cite Q-Chem as follows:
 Y. Shao et al., Mol. Phys. 113, 184-215 (2015)
 DOI: 10.1080/00268976.2014.952696

 Q-Chem 4.3.0 for Intel X86 Linux

 Parts of Q-Chem use Armadillo 5.200.1 (Boston Tea Smuggler).
 http://arma.sourceforge.net/

 Q-Chem begins on Tue Mar 21 02:21:54 2017  

Host: 
0

     Scratch files written to /scratch/qchem/qchem14814//
 Nov1815 1189b_ 19540  19532 5443   
 Parallel job on  1  processors
Processing $rem in /mnt/software/qchem/config/preferences.
 MEM_TOTAL  2000 

Checking the input file for inconsistencies... 	...done.

--------------------------------------------------------------
User input:
--------------------------------------------------------------

$comment
job3 - cvs-adc(2) calculation
$end

$molecule
read
$end

$rem
mem_total 3000
mem_static 1500
sym_ignore true
scf_guess read
method cvs-adc(2)
basis 6-31G*
ee_singlets 20
cc_rest_occ 5                  !only excitations from the lowest N orbitals
unrestricted  true
max_scf_cycles 200
$end
--------------------------------------------------------------
 ----------------------------------------------------------------
             Standard Nuclear Orientation (Angstroms)
    I     Atom           X                Y                Z
 ----------------------------------------------------------------
    1      C      -0.6164430000     2.8368590000    -0.1341600000
    2      F       0.4908490000     2.3769530000     0.0273310000
    3      F      -1.0541900000     3.6007690000     0.6595870000
    4      F      -1.1774330000     0.3421530000     0.6241810000
    5      F      -1.1139530000     2.7724010000    -1.2225430000
 ----------------------------------------------------------------
 Nuclear Repulsion Energy =   187.5818954570 hartrees
 There are       21 alpha and       21 beta electrons
 Requested basis set is 6-31G(d)
 There are 20 shells and 75 basis functions

 Total QAlloc Memory Limit   3000 MB
 Mega-Array Size      1467 MB
 MEM_STATIC part      1500 MB

                       Distance Matrix (Angstroms)
             C (  1)   F (  2)   F (  3)   F (  4)
   F (  2)  1.209830
   F (  3)  1.185418  2.069932
   F (  4)  2.667086  2.698112  3.261138
   F (  5)  1.198436  2.072186  2.057226  3.052953
 
 tim1(1): 
  0.000000000000000E+000
 tim1(2): 
  0.000000000000000E+000
 A cutoff of  1.0D-11 yielded    195 shell pairs
 There are      2942 function pairs
 
 -------------------------------------------------------
 OpenMP Integral Computing Module                       
 Release: version 1.0, May 2013, Q-Chem Inc. Pittsburgh 
 -------------------------------------------------------
 Integral Job Info:
 Integral job number is                      11
 Integral operator is                         1
 short-range coefficients                     0
 long-range coefficients              100000000
 Omega coefficients                           0
 if combine SR and LR in K                    0
 Integral screening is                        0
 Integral computing path is                   2
 max size of driver memory is            800000
 size of driver memory is                593474
 size of scratch memory is              2260544
 max col of scratch BK array               1296
 max len of scratch array in speh3          155
 max len of scratch index in speh4           18
 max int batch size is                      520
 min int batch size is                       52
 fixed nKL is                                52
 max L of basis functions is                  2
 order of int derivative is                   0
 number of shells is                         20
 number of basis is                          75
 number of cartesian basis is                75
 number of contracted shell pairs           195
 number of primitive shell pairs            988
 maxK2 (contraction) of shell pair           36
 max number of K2 of shell pair               1
 max number of CS2 of shell pair             32
 max number of PS2 of shell pair            192
 mem total for path MDJ                   20584
 -------------------------------------------------------
 Smallest overlap matrix eigenvalue = 3.47E-03

 Scale SEOQF with 1.000000e+00/1.000000e-01/1.000000e+00

 Standard Electronic Orientation quadrupole field applied
 Nucleus-field energy     =     0.0000000115 hartrees
 Guess MOs from SCF MO coefficient file
 Reading MOs from coefficient file
 Reading MOs from coefficient file
 An unrestricted Hartree-Fock SCF calculation will be
 performed using Pulay DIIS extrapolation
 SCF converges when DIIS error is below 1.0E-08
 using 8 threads for integral computing 
 ---------------------------------------
  Cycle       Energy         DIIS Error
 ---------------------------------------
    1    -435.3911504797      3.58E-06
    2    -435.3911504981      2.19E-06
    3    -435.3911505064      1.18E-06
    4    -435.3911505148      2.65E-07
    5    -435.3911505152      7.59E-08
    6    -435.3911505152      3.08E-08
    7    -435.3911505152      8.31E-09 Convergence criterion met
 ---------------------------------------
 <S^2> = 0.0000
 SCF time:  CPU 7.34 s  wall 1.87 s
 SCF   energy in the final basis set = -435.3911505152
 Total energy in the final basis set = -435.3911505152
================================================================================
|                                                                              |
|                                 A D C  M A N                                 |
|                                                                              |
 ------------------------------------------------------------------------------ 
|                                                                              |
| Components:                                                                  |
|                                                                              |
| - libvmm - 1.2-release                                                       |
|   Authors:                                                                   |
|   Evgeny Epifanovsky, Ilya Kaliman                                           |
|                                                                              |
| - libtensor - 2.4-trunk                                                      |
|   Authors:                                                                   |
|   Evgeny Epifanovsky, Michael Wormit, Dmitry Zuev, Sam Manzer                |
|                                                                              |
| - libwfa - 1.1-beta                                                          |
|   Authors:                                                                   |
|   Felix Plasser, Stefanie Baeppler, Benjamin Thomitzni, Michael Wormit       |
|                                                                              |
| - libadc - 1.0-beta                                                          |
|   Authors:                                                                   |
|   Michael Wormit, Philipp H. P. Harbach, Caroline Krauter, Dirk Rehn,        |
|   Matthias Schneider, Jan Wenzel                                             |
|                                                                              |
| - adcman - 2.4-beta                                                          |
|   Authors:                                                                   |
|   Michael Wormit, Philipp H. P. Harbach, Caroline Krauter, Dirk Rehn,        |
|   Jan Wenzel, Andreas Dreuw                                                  |
|                                                                              |
| Authors of earlier versions of ADCMAN:                                       |
| Andreas Dreuw, Jan Hendrik Starcke, Dirk Rehn, Michael Wormit                |
|                                                                              |
================================================================================

 
 Alpha MOs, Unrestricted
 -- Occupied --                  
-26.554 -26.540 -26.520 -26.002 -11.738  -1.988  -1.883  -1.858
  1 A     2 A     3 A     4 A     5 A     6 A     7 A     8 A                  
 -1.248  -1.131  -1.056  -1.048  -0.997  -0.881  -0.877  -0.857
  9 A    10 A    11 A    12 A    13 A    14 A    15 A    16 A                  
 -0.836  -0.818  -0.359  -0.359  -0.338
 17 A    18 A    19 A    20 A    21 A                                          
 -- Virtual --                   
  0.040   0.229   0.420   0.430   0.575   0.629   0.648   0.691
 22 A    23 A    24 A    25 A    26 A    27 A    28 A    29 A                  
  1.173   1.191   1.210   1.285   1.325   1.406   1.456   1.458
 30 A    31 A    32 A    33 A    34 A    35 A    36 A    37 A                  
  1.487   1.493   1.504   1.556   1.594   1.712   1.750   1.816
 38 A    39 A    40 A    41 A    42 A    43 A    44 A    45 A                  
  1.851   1.917   1.945   1.956   1.990   2.101   2.111   2.184
 46 A    47 A    48 A    49 A    50 A    51 A    52 A    53 A                  
  2.191   2.196   2.285   2.295   2.390   2.391   2.410   2.424
 54 A    55 A    56 A    57 A    58 A    59 A    60 A    61 A                  
  2.473   2.687   2.912   2.923   3.243   3.267   3.456   3.463
 62 A    63 A    64 A    65 A    66 A    67 A    68 A    69 A                  
  3.501   4.121   4.482   5.000   5.075   5.227
 70 A    71 A    72 A    73 A    74 A    75 A                                  
 
 Beta MOs, Unrestricted
 -- Occupied --                  
-26.554 -26.540 -26.520 -26.002 -11.738  -1.988  -1.883  -1.858
  1 A     2 A     3 A     4 A     5 A     6 A     7 A     8 A                  
 -1.248  -1.131  -1.056  -1.048  -0.997  -0.881  -0.877  -0.857
  9 A    10 A    11 A    12 A    13 A    14 A    15 A    16 A                  
 -0.836  -0.818  -0.359  -0.359  -0.338
 17 A    18 A    19 A    20 A    21 A                                          
 -- Virtual --                   
  0.040   0.229   0.420   0.430   0.575   0.629   0.648   0.691
 22 A    23 A    24 A    25 A    26 A    27 A    28 A    29 A                  
  1.173   1.191   1.210   1.285   1.325   1.406   1.456   1.458
 30 A    31 A    32 A    33 A    34 A    35 A    36 A    37 A                  
  1.487   1.493   1.504   1.556   1.594   1.712   1.750   1.816
 38 A    39 A    40 A    41 A    42 A    43 A    44 A    45 A                  
  1.851   1.917   1.945   1.956   1.990   2.101   2.111   2.184
 46 A    47 A    48 A    49 A    50 A    51 A    52 A    53 A                  
  2.191   2.196   2.285   2.295   2.390   2.391   2.410   2.424
 54 A    55 A    56 A    57 A    58 A    59 A    60 A    61 A                  
  2.473   2.687   2.912   2.923   3.243   3.267   3.456   3.463
 62 A    63 A    64 A    65 A    66 A    67 A    68 A    69 A                  
  3.501   4.121   4.482   5.000   5.075   5.227
 70 A    71 A    72 A    73 A    74 A    75 A                                  
 

--------------------------------------------------------------------------------
                                   HF Summary                                   
--------------------------------------------------------------------------------
  Energy:                                                 -435.3911505152 a.u.
  Dip. moment [a.u.]:                  [ -56.359445,  183.067094,    1.097461]
  Total dipole [Debye]:                                             486.869969
  <r^2> [a.u.]:                        [ 155.689146, 1015.421849,   92.846939]
  Total <r^2> [a.u.]:                                              1263.957933
--------------------------------------------------------------------------------

--------------------------------------------------------------------------------
                                 MP(2) Summary                                  
--------------------------------------------------------------------------------
  Energy contribution:                                      -0.8019639858 a.u.
  Total energy:                                           -436.1931145010 a.u.
  Dip. moment [a.u.]:                  [ -56.314373,  183.456564,    0.996992]
  Total dipole [Debye]:                                             487.781131
  <r^2> [a.u.]:                        [ 155.504852, 1017.448128,   92.678245]
  Total <r^2> [a.u.]:                                              1265.631225
--------------------------------------------------------------------------------
  Starting Davidson ... 
--------------------------------------------------------------------------------
   It NVec Conv  Avg. Norm  Max. Norm  Conv. states           Remark
--------------------------------------------------------------------------------
        20    0  2.089e-01  1.063e+00 10.9972 n n n n n n n n Guess.
    1   40    0  3.330e-02  3.452e-01 10.8405 n n n n n n n n 
    2   60    0  7.698e-03  6.621e-02 10.8392 n n n n n n n n 
    3   80    0  2.086e-03  2.128e-02 10.8391 n n n n n n n n 
    4  100    0  1.514e-03  1.641e-02 10.8391 n n n n n n n n 
    5   40    0  8.679e-04  1.106e-02 10.8391 n n n n n n n n Subspace collapsed.
    6   60    0  1.048e-03  1.445e-02 10.8391 n n n n n n n n 
    7   80    0  1.419e-03  2.147e-02 10.8391 n n n n n n n n 
    8  100    1  1.227e-03  1.746e-02 10.8391 y n n n n n n n 
    9   40    6  4.960e-04  6.976e-03 10.8391 y y n n y y y y Subspace collapsed.
   10   60    7  2.887e-04  3.845e-03 10.8391 y y n y y y y y 
   11   80   11  1.982e-04  2.793e-03 10.8391 y y y y y y y y 
   12  100   14  2.453e-04  3.680e-03 10.8391 y y y y y y y y 
   13   40   14  1.545e-04  2.152e-03 10.8391 y y y y y y y y Subspace collapsed.
   14   60   14  2.763e-04  3.987e-03 10.8391 y y y y y y y y 
   15   80   14  1.615e-02  3.227e-01 10.8391 y y y y y y y y 
   16  100   14  1.657e-02  2.589e-01 10.8391 y y y y y y y y 
   17   39   15  1.401e-02  2.161e-01 10.8391 y y y y y y y y Subspace collapsed.
   18   57   15  1.318e-02  1.918e-01 10.8391 y y y y y y y y 
   19   60   15  1.260e-02  1.916e-01 10.8391 y y y y y y y y 
   20   62   15  1.227e-02  1.834e-01 10.8391 y y y y y y y y 
   21   64   15  1.207e-02  1.819e-01 10.8391 y y y y y y y y 
   22   64   15  1.207e-02  1.819e-01 10.8391 y y y y y y y y 
   23   84   15  8.978e-03  1.273e-01 10.8391 y y y y y y y y 
   24   96   16  1.205e-02  1.963e-01 10.8391 y y y y y y y y 
   25  100   16  1.197e-02  1.963e-01 10.8391 y y y y y y y y 
   26   32   16  1.106e-02  1.813e-01 10.8391 y y y y y y y y Subspace collapsed.
   27   44   16  1.061e-02  1.738e-01 10.8391 y y y y y y y y 
   28   47   16  1.062e-02  1.741e-01 10.8391 y y y y y y y y 
   29   47   16  1.062e-02  1.741e-01 10.8391 y y y y y y y y 
   30   63   16  7.676e-03  1.203e-01 10.8391 y y y y y y y y 
   31   72   16  6.382e-03  1.095e-01 10.8391 y y y y y y y y 
   32   79   16  5.115e-03  8.628e-02 10.8391 y y y y y y y y 
   33   85   16  4.862e-03  8.520e-02 10.8391 y y y y y y y y 
   34   91   16  4.277e-03  7.600e-02 10.8391 y y y y y y y y 
   35   97   16  3.944e-03  7.290e-02 10.8391 y y y y y y y y 
   36  100   16  3.931e-03  7.294e-02 10.8391 y y y y y y y y 
   37   26   16  3.668e-03  7.055e-02 10.8391 y y y y y y y y Subspace collapsed.
   38   32   16  3.468e-03  6.649e-02 10.8391 y y y y y y y y 
   39   38   16  3.181e-03  6.193e-02 10.8391 y y y y y y y y 
   40   44   16  2.992e-03  5.905e-02 10.8391 y y y y y y y y 
   41   45   16  2.990e-03  5.903e-02 10.8391 y y y y y y y y 
   42   51   16  2.832e-03  5.603e-02 10.8391 y y y y y y y y 
   43   56   16  2.704e-03  5.381e-02 10.8391 y y y y y y y y 
   44   61   17  2.575e-03  5.141e-02 10.8391 y y y y y y y y 
   45   66   17  2.499e-03  4.993e-02 10.8391 y y y y y y y y 
   46   71   17  2.393e-03  4.784e-02 10.8391 y y y y y y y y 
   47   72   17  2.395e-03  4.788e-02 10.8391 y y y y y y y y 
   48   73   17  2.388e-03  4.775e-02 10.8391 y y y y y y y y 
   49   74   17  2.385e-03  4.768e-02 10.8391 y y y y y y y y 
   50   74   17  2.385e-03  4.768e-02 10.8391 y y y y y y y y 
   51   74   17  2.385e-03  4.768e-02 10.8391 y y y y y y y y 
   52   94   17  2.322e-03  4.643e-02 10.8391 y y y y y y y y 
   53   98   17  2.231e-03  4.461e-02 10.8391 y y y y y y y y 
   54  100   17  2.231e-03  4.462e-02 10.8391 y y y y y y y y 
   55   24   17  2.234e-03  4.467e-02 10.8391 y y y y y y y y Subspace collapsed.
   56   28   17  2.104e-03  4.209e-02 10.8391 y y y y y y y y 
   57   32   17  2.119e-03  4.238e-02 10.8391 y y y y y y y y 
   58   36   17  2.053e-03  4.106e-02 10.8391 y y y y y y y y 
   59   40   17  2.040e-03  4.080e-02 10.8391 y y y y y y y y 
--------------------------------------------------------------------------------
  Davidson Summary: 
 ------------------------------------------------------------
  State  0: excitation energy =  10.8391 a.u.   (converged)
  State  1: excitation energy =  10.9122 a.u.   (converged)
  State  2: excitation energy =  11.1708 a.u.   (converged)
  State  3: excitation energy =  11.2241 a.u.   (converged)
  State  4: excitation energy =  11.2483 a.u.   (converged)
  State  5: excitation energy =  11.2639 a.u.   (converged)
  State  6: excitation energy =  11.3291 a.u.   (converged)
  State  7: excitation energy =  11.3453 a.u.   (converged)
  State  8: excitation energy =  11.4928 a.u.   (converged)
  State  9: excitation energy =  11.5428 a.u.   (converged)
  State 10: excitation energy =  11.5571 a.u.   (converged)
  State 11: excitation energy =  11.5706 a.u.   (converged)
  State 12: excitation energy =  11.5761 a.u.   (converged)
  State 13: excitation energy =  11.5867 a.u.   (converged)
  State 14: excitation energy =  11.6445 a.u.   (converged)
  State 15: excitation energy =  11.6801 a.u.   (converged)
  State 16: excitation energy =  12.1570 a.u.   (not converged)
  State 17: excitation energy =  12.1574 a.u.   (not converged)
  State 18: excitation energy =  12.1777 a.u.   (not converged)
  State 19: excitation energy =  12.1871 a.u.   (converged)
 ------------------------------------------------------------


--------------------------------------------------------------------------------
                             Excited State Summary
--------------------------------------------------------------------------------

  Excited state  1 (A)                                             [converged]
  ----------------------------------------------------------------------------
  Term symbol:  2 (-) A                                     R^2 =  1.83368e-13

  Total energy:                                           -425.3540015686 a.u.
  Excitation energy:                                             294.947263 eV

  Osc. strength:                                                      0.000000
  Trans. dip. moment [a.u.]:           [  -0.000000,   -0.000000,    0.000000]
  <i|r^2|0> [a.u.]:                    [   0.000000,   -0.000000,   -0.000000]

  V1^2 = 0.9594, V2^2 = 0.0406

  Important amplitudes:
     core i     occ j      vir a      vir b          v   
    ------------------------------------------------------
     5 (A) A              22 (A) A                -0.6606
     5 (A) B              22 (A) B                 0.6606
    ------------------------------------------------------
  ----------------------------------------------------------------------------


  Excited state  2 (A)                                             [converged]
  ----------------------------------------------------------------------------
  Term symbol:  3 (-) A                                     R^2 =  3.75091e-13

  Total energy:                                           -425.2809512996 a.u.
  Excitation energy:                                             296.935062 eV

  Osc. strength:                                                      0.110027
  Trans. dip. moment [a.u.]:           [  -0.059401,   -0.097783,    0.045106]
  <i|r^2|0> [a.u.]:                    [   0.142533,   -1.044339,   -0.019022]

  V1^2 = 0.9549, V2^2 = 0.0451

  Important amplitudes:
     core i     occ j      vir a      vir b          v   
    ------------------------------------------------------
     5 (A) B              22 (A) B                -0.6697
     5 (A) A              22 (A) A                -0.6697
    ------------------------------------------------------
  ----------------------------------------------------------------------------


  Excited state  3 (A)                                             [converged]
  ----------------------------------------------------------------------------
  Term symbol:  4 (-) A                                     R^2 =  8.90455e-14

  Total energy:                                           -425.0223347977 a.u.
  Excitation energy:                                             303.972375 eV

  Osc. strength:                                                      0.000000
  Trans. dip. moment [a.u.]:           [  -0.000000,   -0.000000,    0.000000]
  <i|r^2|0> [a.u.]:                    [  -0.000000,   -0.000000,   -0.000000]

  V1^2 = 0.9271, V2^2 = 0.0729

  Important amplitudes:
     core i     occ j      vir a      vir b          v   
    ------------------------------------------------------
     5 (A) A              23 (A) A                -0.6064
     5 (A) B              23 (A) B                 0.6064
    ------------------------------------------------------
  ----------------------------------------------------------------------------


  Excited state  4 (A)                                             [converged]
  ----------------------------------------------------------------------------
  Term symbol:  5 (-) A                                     R^2 =  6.20587e-13

  Total energy:                                           -424.9689645063 a.u.
  Excitation energy:                                             305.424654 eV

  Osc. strength:                                                      0.001088
  Trans. dip. moment [a.u.]:           [   0.008030,    0.007264,   -0.005308]
  <i|r^2|0> [a.u.]:                    [  -0.002059,    0.100800,    0.017736]

  V1^2 = 0.9148, V2^2 = 0.0852

  Important amplitudes:
     core i     occ j      vir a      vir b          v   
    ------------------------------------------------------
     5 (A) B              23 (A) B                 0.6468
     5 (A) A              23 (A) A                 0.6468
    ------------------------------------------------------
  ----------------------------------------------------------------------------


  Excited state  5 (A)                                             [converged]
  ----------------------------------------------------------------------------
  Term symbol:  6 (-) A                                     R^2 =  1.90550e-13

  Total energy:                                           -424.9448641086 a.u.
  Excitation energy:                                             306.080460 eV

  Osc. strength:                                                      0.000000
  Trans. dip. moment [a.u.]:           [  -0.000000,    0.000000,   -0.000000]
  <i|r^2|0> [a.u.]:                    [   0.000000,    0.000000,    0.000000]

  V1^2 = 0.9540, V2^2 = 0.0460

  Important amplitudes:
     core i     occ j      vir a      vir b          v   
    ------------------------------------------------------
     5 (A) A              27 (A) A                -0.5177
     5 (A) B              27 (A) B                 0.5177
    ------------------------------------------------------
  ----------------------------------------------------------------------------


  Excited state  6 (A)                                             [converged]
  ----------------------------------------------------------------------------
  Term symbol:  7 (-) A                                     R^2 =  3.76971e-13

  Total energy:                                           -424.9291768221 a.u.
  Excitation energy:                                             306.507332 eV

  Osc. strength:                                                      0.000000
  Trans. dip. moment [a.u.]:           [   0.000000,   -0.000000,   -0.000000]
  <i|r^2|0> [a.u.]:                    [  -0.000000,   -0.000000,    0.000000]

  V1^2 = 0.9541, V2^2 = 0.0459

  Important amplitudes:
     core i     occ j      vir a      vir b          v   
    ------------------------------------------------------
     5 (A) A              28 (A) A                -0.5201
     5 (A) B              28 (A) B                 0.5201
    ------------------------------------------------------
  ----------------------------------------------------------------------------


  Excited state  7 (A)                                             [converged]
  ----------------------------------------------------------------------------
  Term symbol:  8 (-) A                                     R^2 =  5.26335e-14

  Total energy:                                           -424.8640571639 a.u.
  Excitation energy:                                             308.279328 eV

  Osc. strength:                                                      0.119299
  Trans. dip. moment [a.u.]:           [   0.102566,   -0.033745,    0.064320]
  <i|r^2|0> [a.u.]:                    [  -0.245298,   -0.362135,   -0.024636]

  V1^2 = 0.9444, V2^2 = 0.0556

  Important amplitudes:
     core i     occ j      vir a      vir b          v   
    ------------------------------------------------------
     5 (A) B              24 (A) B                 0.4871
     5 (A) A              24 (A) A                 0.4871
    ------------------------------------------------------
  ----------------------------------------------------------------------------


  Excited state  8 (A)                                             [converged]
  ----------------------------------------------------------------------------
  Term symbol:  9 (-) A                                     R^2 =  9.96893e-14

  Total energy:                                           -424.8477853864 a.u.
  Excitation energy:                                             308.722106 eV

  Osc. strength:                                                      0.118602
  Trans. dip. moment [a.u.]:           [   0.038173,   -0.069231,   -0.097111]
  <i|r^2|0> [a.u.]:                    [  -0.091401,   -0.737561,    0.049271]

  V1^2 = 0.9441, V2^2 = 0.0559

  Important amplitudes:
     core i     occ j      vir a      vir b          v   
    ------------------------------------------------------
     5 (A) B              25 (A) B                -0.4842
     5 (A) A              25 (A) A                -0.4842
    ------------------------------------------------------
  ----------------------------------------------------------------------------


  Excited state  9 (A)                                             [converged]
  ----------------------------------------------------------------------------
  Term symbol:  10 (-) A                                    R^2 =  5.43365e-13

  Total energy:                                           -424.7003314144 a.u.
  Excitation energy:                                             312.734533 eV

  Osc. strength:                                                      0.000000
  Trans. dip. moment [a.u.]:           [  -0.000000,    0.000000,   -0.000000]
  <i|r^2|0> [a.u.]:                    [   0.000000,    0.000000,    0.000000]

  V1^2 = 0.9111, V2^2 = 0.0889

  Important amplitudes:
     core i     occ j      vir a      vir b          v   
    ------------------------------------------------------
     5 (A) A              26 (A) A                -0.5283
     5 (A) B              26 (A) B                 0.5283
    ------------------------------------------------------
  ----------------------------------------------------------------------------


  Excited state 10 (A)                                             [converged]
  ----------------------------------------------------------------------------
  Term symbol:  11 (-) A                                    R^2 =  4.86553e-13

  Total energy:                                           -424.6503046661 a.u.
  Excitation energy:                                             314.095830 eV

  Osc. strength:                                                      0.025421
  Trans. dip. moment [a.u.]:           [   0.032264,    0.042375,   -0.021608]
  <i|r^2|0> [a.u.]:                    [  -0.058106,    0.472912,    0.027678]

  V1^2 = 0.9105, V2^2 = 0.0895

  Important amplitudes:
     core i     occ j      vir a      vir b          v   
    ------------------------------------------------------
     5 (A) B              26 (A) B                -0.6132
     5 (A) A              26 (A) A                -0.6132
    ------------------------------------------------------
  ----------------------------------------------------------------------------


  Excited state 11 (A)                                             [converged]
  ----------------------------------------------------------------------------
  Term symbol:  12 (-) A                                    R^2 =  5.31195e-13

  Total energy:                                           -424.6359658673 a.u.
  Excitation energy:                                             314.486008 eV

  Osc. strength:                                                      0.000000
  Trans. dip. moment [a.u.]:           [   0.000000,   -0.000000,    0.000000]
  <i|r^2|0> [a.u.]:                    [  -0.000000,   -0.000000,   -0.000000]

  V1^2 = 0.8956, V2^2 = 0.1044

  Important amplitudes:
     core i     occ j      vir a      vir b          v   
    ------------------------------------------------------
     5 (A) A              24 (A) A                -0.3940
     5 (A) B              24 (A) B                 0.3940
    ------------------------------------------------------
  ----------------------------------------------------------------------------


  Excited state 12 (A)                                             [converged]
  ----------------------------------------------------------------------------
  Term symbol:  13 (-) A                                    R^2 =  2.14949e-13

  Total energy:                                           -424.6224976822 a.u.
  Excitation energy:                                             314.852496 eV

  Osc. strength:                                                      0.000000
  Trans. dip. moment [a.u.]:           [   0.000000,   -0.000000,    0.000000]
  <i|r^2|0> [a.u.]:                    [  -0.000000,   -0.000000,   -0.000000]

  V1^2 = 0.8924, V2^2 = 0.1076

  Important amplitudes:
     core i     occ j      vir a      vir b          v   
    ------------------------------------------------------
     5 (A) B              25 (A) B                 0.4026
     5 (A) A              25 (A) A                -0.4026
    ------------------------------------------------------
  ----------------------------------------------------------------------------


  Excited state 13 (A)                                             [converged]
  ----------------------------------------------------------------------------
  Term symbol:  14 (-) A                                    R^2 =  1.37731e-13

  Total energy:                                           -424.6170155953 a.u.
  Excitation energy:                                             315.001671 eV

  Osc. strength:                                                      0.027442
  Trans. dip. moment [a.u.]:           [  -0.055095,    0.017174,   -0.015016]
  <i|r^2|0> [a.u.]:                    [   0.137786,    0.192839,    0.013109]

  V1^2 = 0.8988, V2^2 = 0.1012

  Important amplitudes:
     core i     occ j      vir a      vir b          v   
    ------------------------------------------------------
     5 (A) B              27 (A) B                -0.4736
     5 (A) A              27 (A) A                -0.4736
    ------------------------------------------------------
  ----------------------------------------------------------------------------


  Excited state 14 (A)                                             [converged]
  ----------------------------------------------------------------------------
  Term symbol:  15 (-) A                                    R^2 =  6.21176e-13

  Total energy:                                           -424.6064425545 a.u.
  Excitation energy:                                             315.289378 eV

  Osc. strength:                                                      0.030301
  Trans. dip. moment [a.u.]:           [   0.007030,   -0.023121,   -0.057782]
  <i|r^2|0> [a.u.]:                    [  -0.021989,   -0.252570,    0.023776]

  V1^2 = 0.8975, V2^2 = 0.1025

  Important amplitudes:
     core i     occ j      vir a      vir b          v   
    ------------------------------------------------------
     5 (A) B              28 (A) B                -0.4730
     5 (A) A              28 (A) A                -0.4730
    ------------------------------------------------------
  ----------------------------------------------------------------------------


  Excited state 15 (A)                                             [converged]
  ----------------------------------------------------------------------------
  Term symbol:  16 (-) A                                    R^2 =  8.76263e-13

  Total energy:                                           -424.5486211739 a.u.
  Excitation energy:                                             316.862778 eV

  Osc. strength:                                                      0.000000
  Trans. dip. moment [a.u.]:           [  -0.000000,    0.000000,   -0.000000]
  <i|r^2|0> [a.u.]:                    [   0.000000,    0.000000,    0.000000]

  V1^2 = 0.8974, V2^2 = 0.1026

  Important amplitudes:
     core i     occ j      vir a      vir b          v   
    ------------------------------------------------------
     5 (A) A              29 (A) A                -0.5775
     5 (A) B              29 (A) B                 0.5775
    ------------------------------------------------------
  ----------------------------------------------------------------------------


  Excited state 16 (A)                                             [converged]
  ----------------------------------------------------------------------------
  Term symbol:  17 (-) A                                    R^2 =  1.69296e-12

  Total energy:                                           -424.5130087472 a.u.
  Excitation energy:                                             317.831842 eV

  Osc. strength:                                                      0.017987
  Trans. dip. moment [a.u.]:           [  -0.007877,   -0.046044,    0.011310]
  <i|r^2|0> [a.u.]:                    [   0.035591,   -0.476627,    0.011865]

  V1^2 = 0.9007, V2^2 = 0.0993

  Important amplitudes:
     core i     occ j      vir a      vir b          v   
    ------------------------------------------------------
     5 (A) B              29 (A) B                 0.6324
     5 (A) A              29 (A) A                 0.6324
    ------------------------------------------------------
  ----------------------------------------------------------------------------


  Excited state 17 (A)                                         [not converged]
  ----------------------------------------------------------------------------
  Term symbol:  18 (-) A                                    R^2 =  3.90432e-05

  Total energy:                                           -424.0361198198 a.u.
  Excitation energy:                                             330.808649 eV


  V1^2 = 0.0064, V2^2 = 0.9936

  Important amplitudes:
     core i     occ j      vir a      vir b          v   
    ------------------------------------------------------
     5 (A) A   21 (A) B   22 (A) A   22 (A) B      0.4981
     5 (A) B   21 (A) A   22 (A) A   22 (A) B      0.4981
    ------------------------------------------------------
  ----------------------------------------------------------------------------


  Excited state 18 (A)                                         [not converged]
  ----------------------------------------------------------------------------
  Term symbol:  19 (-) A                                    R^2 =  2.76739e-05

  Total energy:                                           -424.0356990019 a.u.
  Excitation energy:                                             330.820100 eV


  V1^2 = 0.0066, V2^2 = 0.9934

  Important amplitudes:
     core i     occ j      vir a      vir b          v   
    ------------------------------------------------------
     5 (A) B   21 (A) A   22 (A) A   22 (A) B     -0.4980
     5 (A) A   21 (A) B   22 (A) A   22 (A) B      0.4980
    ------------------------------------------------------
  ----------------------------------------------------------------------------


  Excited state 19 (A)                                         [not converged]
  ----------------------------------------------------------------------------
  Term symbol:  20 (-) A                                    R^2 =  4.07974e-02

  Total energy:                                           -424.0153930155 a.u.
  Excitation energy:                                             331.372654 eV


  V1^2 = 0.0000, V2^2 = 1.0000

  Important amplitudes:
     core i     occ j      vir a      vir b          v   
    ------------------------------------------------------
     5 (A) B   19 (A) A   22 (A) A   22 (A) B      0.4809
     5 (A) A   19 (A) B   22 (A) A   22 (A) B     -0.4525
    ------------------------------------------------------
  ----------------------------------------------------------------------------


  Excited state 20 (A)                                             [converged]
  ----------------------------------------------------------------------------
  Term symbol:  21 (-) A                                    R^2 =  1.38761e-07

  Total energy:                                           -424.0060487044 a.u.
  Excitation energy:                                             331.626926 eV

  Osc. strength:                                                      0.000000
  Trans. dip. moment [a.u.]:           [  -0.000000,    0.000000,    0.000000]
  <i|r^2|0> [a.u.]:                    [   0.000000,    0.000000,    0.000000]

  V1^2 = 0.8708, V2^2 = 0.1292

  Important amplitudes:
     core i     occ j      vir a      vir b          v   
    ------------------------------------------------------
     5 (A) A              30 (A) A                 0.5225
     5 (A) B              30 (A) B                -0.5225
    ------------------------------------------------------
  ----------------------------------------------------------------------------


--------------------------------------------------------------------------------
  Time of ADC calculation:  CPU 3206.44 s  wall 1955.11 s
================================================================================
 
 --------------------------------------------------------------
 
                    Orbital Energies (a.u.)
 --------------------------------------------------------------
 
 Alpha MOs
 -- Occupied --
-26.554 -26.540 -26.520 -26.002 -11.738  -1.988  -1.883  -1.858
 -1.248  -1.131  -1.056  -1.048  -0.997  -0.881  -0.877  -0.857
 -0.836  -0.818  -0.359  -0.359  -0.338
 -- Virtual --
  0.040   0.229   0.420   0.430   0.575   0.629   0.648   0.691
  1.173   1.191   1.210   1.285   1.325   1.406   1.456   1.458
  1.487   1.493   1.504   1.556   1.594   1.712   1.750   1.816
  1.851   1.917   1.945   1.956   1.990   2.101   2.111   2.184
  2.191   2.196   2.285   2.295   2.390   2.391   2.410   2.424
  2.473   2.687   2.912   2.923   3.243   3.267   3.456   3.463
  3.501   4.121   4.482   5.000   5.075   5.227
 
 Beta MOs
 -- Occupied --
-26.554 -26.540 -26.520 -26.002 -11.738  -1.988  -1.883  -1.858
 -1.248  -1.131  -1.056  -1.048  -0.997  -0.881  -0.877  -0.857
 -0.836  -0.818  -0.359  -0.359  -0.338
 -- Virtual --
  0.040   0.229   0.420   0.430   0.575   0.629   0.648   0.691
  1.173   1.191   1.210   1.285   1.325   1.406   1.456   1.458
  1.487   1.493   1.504   1.556   1.594   1.712   1.750   1.816
  1.851   1.917   1.945   1.956   1.990   2.101   2.111   2.184
  2.191   2.196   2.285   2.295   2.390   2.391   2.410   2.424
  2.473   2.687   2.912   2.923   3.243   3.267   3.456   3.463
  3.501   4.121   4.482   5.000   5.075   5.227
 --------------------------------------------------------------
 
          Ground-State Mulliken Net Atomic Charges

     Atom                 Charge (a.u.)    Spin (a.u.)
  --------------------------------------------------------
      1 C                     1.084303       0.000000
      2 F                    -0.098203       0.000000
      3 F                    -0.088674       0.000000
      4 F                    -0.797745       0.000000
      5 F                    -0.099681       0.000000
  --------------------------------------------------------
  Sum of atomic charges =     0.000000
  Sum of spin   charges =     0.000000

 -----------------------------------------------------------------
                    Cartesian Multipole Moments
 -----------------------------------------------------------------
    Charge (ESU x 10^10)
                 0.0000
    Dipole Moment (Debye)
         X       2.0795      Y       9.4945      Z      -2.8277
       Tot      10.1225
    Quadrupole Moments (Debye-Ang)
        XX     -26.4272     XY      -5.0840     YY       8.2039
        XZ       2.9697     YZ      -2.3349     ZZ     -24.0720
    Octopole Moments (Debye-Ang^2)
       XXX      54.4548    XXY     -49.5182    XYY      -2.1298
       YYY     -64.6716    XXZ      -3.8429    XYZ       1.4820
       YYZ      -4.9677    XZZ      17.7274    YZZ     -51.8462
       ZZZ      -2.7757
    Hexadecapole Moments (Debye-Ang^3)
      XXXX    -142.4022   XXXY     102.8782   XXYY    -162.3147
      XYYY      50.2230   YYYY    -637.4506   XXXZ       6.1814
      XXYZ       3.3807   XYYZ       1.2954   YYYZ       1.4902
      XXZZ     -36.8349   XYZZ      34.0026   YYZZ    -161.3727
      XZZZ       3.8202   YZZZ      12.9788   ZZZZ     -75.9654
 -----------------------------------------------------------------
Archival summary:
1\1\tp-linux1\SP\HF\6-31G*\41\thomas\TueMar2102:54:342017TueMar2102:54:342017\0\\#,HF,6-31G*,\\0,1\C\F,1,1.18542\F,1,1.19844,2,119.305\F,1,1.20983,2,119.576,3,-162.253,0\F,1,2.66709,2,109.555,3,110.251,0\\HF=-435.391151\\@

 Total job time:  1959.14s(wall), 3217.27s(cpu) 
 Tue Mar 21 02:54:34 2017

        *************************************************************
        *                                                           *
        *  Thank you very much for using Q-Chem.  Have a nice day.  *
        *                                                           *
        *************************************************************


0 sent ACK to 0 
now end server 0 ... 
cleanup process ... done
