
Running Job 1 of 2 ddtraj2t37.inp
qchem ddtraj2t37.inp_16331.0 /scratch/qchem/qchem16331/ 1
/mnt/software/qchem/bin/mpi/mpirun_qchem -machinefile /mnt/software/qchem/bin/mpi/machines -np 1 /mnt/software/qchem/exe/qcprog.exe ddtraj2t37.inp_16331.0 /scratch/qchem/qchem16331/

Process 0 of 1 is on tp-linux1 - thread support 0
initial socket setup ...start
initial socket setup ...done 
now start server 0 ... 

cmd = ssh tp-linux1 /mnt/software/qchem/bin/get_hostid 1923672546 > /scratch/qchem/qchem16331/lic.dat
                  Welcome to Q-Chem
     A Quantum Leap Into The Future Of Chemistry


 Q-Chem 4.3, Q-Chem, Inc., Pleasanton, CA (2015)

 Y. Shao,  Z. Gan,  E. Epifanovsky,  A. T. B. Gilbert,  M. Wormit,  
 J. Kussmann,  A. W. Lange,  A. Behn,  J. Deng,  X. Feng,  D. Ghosh,  
 M. Goldey,  P. R. Horn,  L. D. Jacobson,  I. Kaliman,  R. Z. Khaliullin,  
 T. Kus,  A. Landau,  J. Liu,  E. I. Proynov,  Y. M. Rhee,  R. M. Richard,  
 M. A. Rohrdanz,  R. P. Steele,  E. J. Sundstrom,  H. L. Woodcock III,  
 P. M. Zimmerman,  D. Zuev,  B. Albrecht,  E. Alguire,  B. Austin,  
 S. A. Baeppler,  G. J. O. Beran,  Y. A. Bernard,  E. Berquist,  
 K. Brandhorst,  K. B. Bravaya,  S. T. Brown,  D. Casanova,  C.-M. Chang,  
 Y. Chen,  S. H. Chien,  K. D. Closser,  D. L. Crittenden,  M. Diedenhofen,  
 R. A. DiStasio Jr.,  H. Do,  A. D. Dutoi,  R. G. Edgar,  P.-T. Fang,  
 S. Fatehi,  Q. Feng,  L. Fusti-Molnar,  A. Ghysels,  
 A. Golubeva-Zadorozhnaya,  J. Gomes,  A. Gunina,  M. W. D. Hanson-Heine,  
 P. H. P. Harbach,  A. W. Hauser,  E. G. Hohenstein,  Z. C. Holden,  K. Hui,  
 T.-C. Jagau,  H. Ji,  B. Kaduk,  K. Khistyaev,  Jaehoon Kim,  Jihan Kim,  
 R. A. King,  P. Klunzinger,  D. Kosenkov,  T. Kowalczyk,  C. M. Krauter,  
 K. U. Lao,  A. Laurent,  K. V. Lawler,  S. Lehtola,  S. V. Levchenko,  
 C. Y. Lin,  Y.-S. Lin,  F. Liu,  E. Livshits,  R. C. Lochan,  A. Luenser,  
 P. Manohar,  S. F. Manzer,  S.-P. Mao,  N. Mardirossian,  A. V. Marenich,  
 L. A. Martinez-Martinez,  S. A. Maurer,  N. J. Mayhall,  K. Nanda,  
 C. M. Oana,  R. Olivares-Amaya,  D. P. O'Neill,  J. A. Parkhill,  
 T. M. Perrine,  R. Peverati,  P. A. Pieniazek,  F. Plasser,  A. Prociuk,  
 D. R. Rehn,  E. Rosta,  N. J. Russ,  N. Sergueev,  S. M. Sharada,  
 S. Sharma,  D. W. Small,  A. Sodt,  T. Stauch,  T. Stein,  D. Stuck,  
 Y.-C. Su,  A. J. W. Thom,  T. Tsuchimochi,  L. Vogt,  O. Vydrov,  T. Wang,  
 M. A. Watson,  J. Wenzel,  A. White,  C. F. Williams,  V. Vanovschi,  
 S. Yeganeh,  S. R. Yost,  Z.-Q. You,  I. Y. Zhang,  X. Zhang,  Y. Zhao,  
 B. R. Brooks,  G. K. L. Chan,  D. M. Chipman,  C. J. Cramer,  
 W. A. Goddard III,  M. S. Gordon,  W. J. Hehre,  A. Klamt,  
 H. F. Schaefer III,  M. W. Schmidt,  C. D. Sherrill,  D. G. Truhlar,  
 A. Warshel,  X. Xu,  A. Aspuru-Guzik,  R. Baer,  A. T. Bell,  N. A. Besley,  
 J.-D. Chai,  A. Dreuw,  B. D. Dunietz,  T. R. Furlani,  S. R. Gwaltney,  
 C.-P. Hsu,  Y. Jung,  J. Kong,  D. S. Lambrecht,  W. Liang,  C. Ochsenfeld,  
 V. A. Rassolov,  L. V. Slipchenko,  J. E. Subotnik,  T. Van Voorhis,  
 J. M. Herbert,  A. I. Krylov,  P. M. W. Gill,  M. Head-Gordon

 Contributors to earlier versions of Q-Chem not listed above: 
 R. D. Adamson,  J. Baker,  E. F. C. Byrd,  A. K. Chakraborty,  C.-L. Cheng,  
 H. Dachsel,  R. J. Doerksen,  G. Hawkins,  A. Heyden,  S. Hirata,  
 G. Kedziora,  F. J. Keil,  C. Kelley,  P. P. Korambath,  W. Kurlancheek,  
 A. M. Lee,  M. S. Lee,  D. Liotard,  I. Lotan,  P. E. Maslen,  N. Nair,  
 D. Neuhauser,  R. Olson,  B. Peters,  J. Ritchie,  N. E. Schultz,  
 N. Shenvi,  A. C. Simmonett,  K. S. Thanthiriwatte,  Q. Wu,  W. Zhang

 Please cite Q-Chem as follows:
 Y. Shao et al., Mol. Phys. 113, 184-215 (2015)
 DOI: 10.1080/00268976.2014.952696

 Q-Chem 4.3.0 for Intel X86 Linux

 Parts of Q-Chem use Armadillo 5.200.1 (Boston Tea Smuggler).
 http://arma.sourceforge.net/

 Q-Chem begins on Fri Mar 17 12:22:05 2017  

Host: 
0

     Scratch files written to /scratch/qchem/qchem16331//
 Nov1815 1189b_ 19540  19532 5443   
 Parallel job on  1  processors
Processing $rem in /mnt/software/qchem/config/preferences.
 MEM_TOTAL  2000 

Checking the input file for inconsistencies... 	...done.

--------------------------------------------------------------
User input:
--------------------------------------------------------------
$comment
XAS calculation for the 2b valence excited for water using cvs-adc(2)-x + 6-311+G* basis set
job 1 - determination of HF orbitals
$end

$molecule
0 1
6  -0.597173  2.675351  -0.161645
9  0.649485  2.541422  -0.062861
9  -1.08773  3.584904  0.718527
9  -1.382929  0.255461  0.763111
9  -1.077872  2.829331  -1.304963
$end

$rem
jobtype      sp
sym_ignore true
exchange     hf
basis        6-31G*
unrestricted true
$end

--------------------------------------------------------------
 ----------------------------------------------------------------
             Standard Nuclear Orientation (Angstroms)
    I     Atom           X                Y                Z
 ----------------------------------------------------------------
    1      C      -0.5971730000     2.6753510000    -0.1616450000
    2      F       0.6494850000     2.5414220000    -0.0628610000
    3      F      -1.0877300000     3.5849040000     0.7185270000
    4      F      -1.3829290000     0.2554610000     0.7631110000
    5      F      -1.0778720000     2.8293310000    -1.3049630000
 ----------------------------------------------------------------
 Nuclear Repulsion Energy =   176.0134207334 hartrees
 There are       21 alpha and       21 beta electrons
 Requested basis set is 6-31G(d)
 There are 20 shells and 75 basis functions

 Total QAlloc Memory Limit   2000 MB
 Mega-Array Size        61 MB
 MEM_STATIC part        62 MB

                       Distance Matrix (Angstroms)
             C (  1)   F (  2)   F (  3)   F (  4)
   F (  2)  1.257717
   F (  3)  1.357437  2.171943
   F (  4)  2.707112  3.168368  3.342801
   F (  5)  1.249783  2.146968  2.159977  3.315840
 
 tim1(1): 
  3.999999999999997E-003
 tim1(2): 
  1.000000000000000E-006
 A cutoff of  1.0D-08 yielded    178 shell pairs
 There are      2748 function pairs
 
 -------------------------------------------------------
 OpenMP Integral Computing Module                       
 Release: version 1.0, May 2013, Q-Chem Inc. Pittsburgh 
 -------------------------------------------------------
 Integral Job Info:
 Integral job number is                      11
 Integral operator is                         1
 short-range coefficients                     0
 long-range coefficients              100000000
 Omega coefficients                           0
 if combine SR and LR in K                    0
 Integral screening is                        0
 Integral computing path is                   2
 max size of driver memory is            800000
 size of driver memory is                593474
 size of scratch memory is              2260544
 max col of scratch BK array               1296
 max len of scratch array in speh3          155
 max len of scratch index in speh4           18
 max int batch size is                      520
 min int batch size is                       52
 fixed nKL is                                52
 max L of basis functions is                  2
 order of int derivative is                   0
 number of shells is                         20
 number of basis is                          75
 number of cartesian basis is                75
 number of contracted shell pairs           178
 number of primitive shell pairs            875
 maxK2 (contraction) of shell pair           36
 max number of K2 of shell pair               1
 max number of CS2 of shell pair             29
 max number of PS2 of shell pair            180
 mem total for path MDJ                   17476
 -------------------------------------------------------
 Smallest overlap matrix eigenvalue = 3.48E-03

 Scale SEOQF with 1.000000e+00/1.000000e-01/1.000000e+00

 Standard Electronic Orientation quadrupole field applied
 Nucleus-field energy     =     0.0000000093 hartrees
 Guess from superposition of atomic densities
 Warning:  Energy on first SCF cycle will be non-variational
 An unrestricted Hartree-Fock SCF calculation will be
 performed using Pulay DIIS extrapolation
 SCF converges when DIIS error is below 1.0E-05
 using 8 threads for integral computing 
 ---------------------------------------
  Cycle       Energy         DIIS Error
 ---------------------------------------
    1    -435.8895700045      7.93E-02
    2    -435.0710494191      2.14E-02
    3    -434.6155130628      3.41E-02
    4    -435.3419031710      6.42E-03
    5    -435.3649481925      1.87E-03
    6    -435.3674902366      3.62E-04
    7    -435.3676567195      2.42E-04
    8    -435.3677035127      9.54E-05
    9    -435.3677190756      3.31E-05
   10    -435.3677245003      2.12E-05
   11    -435.3677281074      1.14E-05
   12    -435.3677294032      4.25E-06 Convergence criterion met
 ---------------------------------------
 <S^2> = 0.0000
 SCF time:  CPU 11.88 s  wall 2.90 s
 SCF   energy in the final basis set = -435.3677294032
 Total energy in the final basis set = -435.3677294032
 
 --------------------------------------------------------------
 
                    Orbital Energies (a.u.)
 --------------------------------------------------------------
 
 Alpha MOs
 -- Occupied --
-26.516 -26.509 -26.471 -26.131 -11.723  -1.899  -1.817  -1.751
 -1.346  -1.089  -0.984  -0.967  -0.924  -0.837  -0.815  -0.812
 -0.781  -0.773  -0.463  -0.463  -0.390
 -- Virtual --
 -0.057   0.280   0.320   0.367   0.586   0.609   0.635   0.658
  1.208   1.215   1.242   1.280   1.282   1.316   1.501   1.503
  1.507   1.533   1.540   1.546   1.628   1.632   1.658   1.841
  1.850   1.865   1.967   1.985   2.000   2.035   2.053   2.070
  2.156   2.182   2.228   2.247   2.306   2.307   2.329   2.335
  2.384   2.608   2.738   2.746   3.008   3.040   3.289   3.304
  3.375   4.018   4.490   4.513   4.676   4.935
 
 Beta MOs
 -- Occupied --
-26.516 -26.509 -26.471 -26.131 -11.723  -1.899  -1.817  -1.751
 -1.346  -1.089  -0.984  -0.967  -0.924  -0.837  -0.815  -0.812
 -0.781  -0.773  -0.463  -0.463  -0.390
 -- Virtual --
 -0.057   0.280   0.320   0.367   0.586   0.609   0.635   0.658
  1.208   1.215   1.242   1.280   1.282   1.316   1.501   1.503
  1.507   1.533   1.540   1.546   1.628   1.632   1.658   1.841
  1.850   1.865   1.967   1.985   2.000   2.035   2.053   2.070
  2.156   2.182   2.228   2.247   2.306   2.307   2.329   2.335
  2.384   2.608   2.738   2.746   3.008   3.040   3.289   3.304
  3.375   4.018   4.490   4.513   4.676   4.935
 --------------------------------------------------------------
 
          Ground-State Mulliken Net Atomic Charges

     Atom                 Charge (a.u.)    Spin (a.u.)
  --------------------------------------------------------
      1 C                     1.154384       0.000000
      2 F                    -0.163572       0.000000
      3 F                    -0.258910       0.000000
      4 F                    -0.573670       0.000000
      5 F                    -0.158232       0.000000
  --------------------------------------------------------
  Sum of atomic charges =     0.000000
  Sum of spin   charges =     0.000000

 -----------------------------------------------------------------
                    Cartesian Multipole Moments
 -----------------------------------------------------------------
    Charge (ESU x 10^10)
                 0.0000
    Dipole Moment (Debye)
         X       2.2587      Y       6.1693      Z      -2.8489
       Tot       7.1609
    Quadrupole Moments (Debye-Ang)
        XX     -27.7922     XY      -2.3454     YY      -5.7585
        XZ       3.3488     YZ      -3.1273     ZZ     -24.9688
    Octopole Moments (Debye-Ang^2)
       XXX      57.9925    XXY     -54.1942    XYY       9.0292
       YYY    -117.6037    XXZ      -4.7477    XYZ       2.7276
       YYZ      -7.9690    XZZ      19.0036    YZZ     -54.6915
       ZZZ      -3.0091
    Hexadecapole Moments (Debye-Ang^3)
      XXXX    -167.5683   XXXY     102.9702   XXYY    -182.3557
      XYYY      83.2112   YYYY    -839.7726   XXXZ      13.6036
      XXYZ       3.3257   XYYZ       7.5606   YYYZ      -4.1720
      XXZZ     -44.3045   XYZZ      33.9868   YYZZ    -173.6017
      XZZZ      10.0309   YZZZ      17.0890   ZZZZ     -91.5565
 -----------------------------------------------------------------
Archival summary:
1\1\tp-linux1\SP\HF\6-31G*\41\thomas\FriMar1712:22:082017FriMar1712:22:082017\0\\#,HF,6-31G*,\\0,1\C\F,1,1.24978\F,1,1.25772,2,117.789\F,1,1.35744,2,111.816,3,-132.218,0\F,1,2.70711,2,108.119,3,111.685,0\\HF=-435.367729\\@

 Total job time:  3.22s(wall), 13.61s(cpu) 
 Fri Mar 17 12:22:08 2017

        *************************************************************
        *                                                           *
        *  Thank you very much for using Q-Chem.  Have a nice day.  *
        *                                                           *
        *************************************************************


0 sent ACK to 0 
now end server 0 ... 
cleanup process ... done

Running Job 2 of 2 ddtraj2t37.inp
qchem ddtraj2t37.inp_16331.1 /scratch/qchem/qchem16331/ 1
/mnt/software/qchem/bin/mpi/mpirun_qchem -machinefile /mnt/software/qchem/bin/mpi/machines -np 1 /mnt/software/qchem/exe/qcprog.exe ddtraj2t37.inp_16331.1 /scratch/qchem/qchem16331/

Process 0 of 1 is on tp-linux1 - thread support 0
initial socket setup ...start
initial socket setup ...done 
now start server 0 ... 

cmd = ssh tp-linux1 /mnt/software/qchem/bin/get_hostid 1164546379 > /scratch/qchem/qchem16331/lic.dat
                  Welcome to Q-Chem
     A Quantum Leap Into The Future Of Chemistry


 Q-Chem 4.3, Q-Chem, Inc., Pleasanton, CA (2015)

 Y. Shao,  Z. Gan,  E. Epifanovsky,  A. T. B. Gilbert,  M. Wormit,  
 J. Kussmann,  A. W. Lange,  A. Behn,  J. Deng,  X. Feng,  D. Ghosh,  
 M. Goldey,  P. R. Horn,  L. D. Jacobson,  I. Kaliman,  R. Z. Khaliullin,  
 T. Kus,  A. Landau,  J. Liu,  E. I. Proynov,  Y. M. Rhee,  R. M. Richard,  
 M. A. Rohrdanz,  R. P. Steele,  E. J. Sundstrom,  H. L. Woodcock III,  
 P. M. Zimmerman,  D. Zuev,  B. Albrecht,  E. Alguire,  B. Austin,  
 S. A. Baeppler,  G. J. O. Beran,  Y. A. Bernard,  E. Berquist,  
 K. Brandhorst,  K. B. Bravaya,  S. T. Brown,  D. Casanova,  C.-M. Chang,  
 Y. Chen,  S. H. Chien,  K. D. Closser,  D. L. Crittenden,  M. Diedenhofen,  
 R. A. DiStasio Jr.,  H. Do,  A. D. Dutoi,  R. G. Edgar,  P.-T. Fang,  
 S. Fatehi,  Q. Feng,  L. Fusti-Molnar,  A. Ghysels,  
 A. Golubeva-Zadorozhnaya,  J. Gomes,  A. Gunina,  M. W. D. Hanson-Heine,  
 P. H. P. Harbach,  A. W. Hauser,  E. G. Hohenstein,  Z. C. Holden,  K. Hui,  
 T.-C. Jagau,  H. Ji,  B. Kaduk,  K. Khistyaev,  Jaehoon Kim,  Jihan Kim,  
 R. A. King,  P. Klunzinger,  D. Kosenkov,  T. Kowalczyk,  C. M. Krauter,  
 K. U. Lao,  A. Laurent,  K. V. Lawler,  S. Lehtola,  S. V. Levchenko,  
 C. Y. Lin,  Y.-S. Lin,  F. Liu,  E. Livshits,  R. C. Lochan,  A. Luenser,  
 P. Manohar,  S. F. Manzer,  S.-P. Mao,  N. Mardirossian,  A. V. Marenich,  
 L. A. Martinez-Martinez,  S. A. Maurer,  N. J. Mayhall,  K. Nanda,  
 C. M. Oana,  R. Olivares-Amaya,  D. P. O'Neill,  J. A. Parkhill,  
 T. M. Perrine,  R. Peverati,  P. A. Pieniazek,  F. Plasser,  A. Prociuk,  
 D. R. Rehn,  E. Rosta,  N. J. Russ,  N. Sergueev,  S. M. Sharada,  
 S. Sharma,  D. W. Small,  A. Sodt,  T. Stauch,  T. Stein,  D. Stuck,  
 Y.-C. Su,  A. J. W. Thom,  T. Tsuchimochi,  L. Vogt,  O. Vydrov,  T. Wang,  
 M. A. Watson,  J. Wenzel,  A. White,  C. F. Williams,  V. Vanovschi,  
 S. Yeganeh,  S. R. Yost,  Z.-Q. You,  I. Y. Zhang,  X. Zhang,  Y. Zhao,  
 B. R. Brooks,  G. K. L. Chan,  D. M. Chipman,  C. J. Cramer,  
 W. A. Goddard III,  M. S. Gordon,  W. J. Hehre,  A. Klamt,  
 H. F. Schaefer III,  M. W. Schmidt,  C. D. Sherrill,  D. G. Truhlar,  
 A. Warshel,  X. Xu,  A. Aspuru-Guzik,  R. Baer,  A. T. Bell,  N. A. Besley,  
 J.-D. Chai,  A. Dreuw,  B. D. Dunietz,  T. R. Furlani,  S. R. Gwaltney,  
 C.-P. Hsu,  Y. Jung,  J. Kong,  D. S. Lambrecht,  W. Liang,  C. Ochsenfeld,  
 V. A. Rassolov,  L. V. Slipchenko,  J. E. Subotnik,  T. Van Voorhis,  
 J. M. Herbert,  A. I. Krylov,  P. M. W. Gill,  M. Head-Gordon

 Contributors to earlier versions of Q-Chem not listed above: 
 R. D. Adamson,  J. Baker,  E. F. C. Byrd,  A. K. Chakraborty,  C.-L. Cheng,  
 H. Dachsel,  R. J. Doerksen,  G. Hawkins,  A. Heyden,  S. Hirata,  
 G. Kedziora,  F. J. Keil,  C. Kelley,  P. P. Korambath,  W. Kurlancheek,  
 A. M. Lee,  M. S. Lee,  D. Liotard,  I. Lotan,  P. E. Maslen,  N. Nair,  
 D. Neuhauser,  R. Olson,  B. Peters,  J. Ritchie,  N. E. Schultz,  
 N. Shenvi,  A. C. Simmonett,  K. S. Thanthiriwatte,  Q. Wu,  W. Zhang

 Please cite Q-Chem as follows:
 Y. Shao et al., Mol. Phys. 113, 184-215 (2015)
 DOI: 10.1080/00268976.2014.952696

 Q-Chem 4.3.0 for Intel X86 Linux

 Parts of Q-Chem use Armadillo 5.200.1 (Boston Tea Smuggler).
 http://arma.sourceforge.net/

 Q-Chem begins on Fri Mar 17 12:22:11 2017  

Host: 
0

     Scratch files written to /scratch/qchem/qchem16331//
 Nov1815 1189b_ 19540  19532 5443   
 Parallel job on  1  processors
Processing $rem in /mnt/software/qchem/config/preferences.
 MEM_TOTAL  2000 

Checking the input file for inconsistencies... 	...done.

--------------------------------------------------------------
User input:
--------------------------------------------------------------

$comment
job3 - cvs-adc(2) calculation
$end

$molecule
read
$end

$rem
mem_total 3000
mem_static 1500
sym_ignore true
scf_guess read
method cvs-adc(2)
basis 6-31G*
ee_singlets 20
cc_rest_occ 5                  !only excitations from the lowest N orbitals
unrestricted  true
max_scf_cycles 200
$end
--------------------------------------------------------------
 ----------------------------------------------------------------
             Standard Nuclear Orientation (Angstroms)
    I     Atom           X                Y                Z
 ----------------------------------------------------------------
    1      C      -0.5971730000     2.6753510000    -0.1616450000
    2      F       0.6494850000     2.5414220000    -0.0628610000
    3      F      -1.0877300000     3.5849040000     0.7185270000
    4      F      -1.3829290000     0.2554610000     0.7631110000
    5      F      -1.0778720000     2.8293310000    -1.3049630000
 ----------------------------------------------------------------
 Nuclear Repulsion Energy =   176.0134207334 hartrees
 There are       21 alpha and       21 beta electrons
 Requested basis set is 6-31G(d)
 There are 20 shells and 75 basis functions

 Total QAlloc Memory Limit   3000 MB
 Mega-Array Size      1467 MB
 MEM_STATIC part      1500 MB

                       Distance Matrix (Angstroms)
             C (  1)   F (  2)   F (  3)   F (  4)
   F (  2)  1.257717
   F (  3)  1.357437  2.171943
   F (  4)  2.707112  3.168368  3.342801
   F (  5)  1.249783  2.146968  2.159977  3.315840
 
 tim1(1): 
  0.000000000000000E+000
 tim1(2): 
  0.000000000000000E+000
 A cutoff of  1.0D-11 yielded    189 shell pairs
 There are      2886 function pairs
 
 -------------------------------------------------------
 OpenMP Integral Computing Module                       
 Release: version 1.0, May 2013, Q-Chem Inc. Pittsburgh 
 -------------------------------------------------------
 Integral Job Info:
 Integral job number is                      11
 Integral operator is                         1
 short-range coefficients                     0
 long-range coefficients              100000000
 Omega coefficients                           0
 if combine SR and LR in K                    0
 Integral screening is                        0
 Integral computing path is                   2
 max size of driver memory is            800000
 size of driver memory is                593474
 size of scratch memory is              2260544
 max col of scratch BK array               1296
 max len of scratch array in speh3          155
 max len of scratch index in speh4           18
 max int batch size is                      520
 min int batch size is                       52
 fixed nKL is                                52
 max L of basis functions is                  2
 order of int derivative is                   0
 number of shells is                         20
 number of basis is                          75
 number of cartesian basis is                75
 number of contracted shell pairs           189
 number of primitive shell pairs            953
 maxK2 (contraction) of shell pair           36
 max number of K2 of shell pair               1
 max number of CS2 of shell pair             32
 max number of PS2 of shell pair            192
 mem total for path MDJ                   18100
 -------------------------------------------------------
 Smallest overlap matrix eigenvalue = 3.48E-03

 Scale SEOQF with 1.000000e+00/1.000000e-01/1.000000e+00

 Standard Electronic Orientation quadrupole field applied
 Nucleus-field energy     =     0.0000000093 hartrees
 Guess MOs from SCF MO coefficient file
 Reading MOs from coefficient file
 Reading MOs from coefficient file
 An unrestricted Hartree-Fock SCF calculation will be
 performed using Pulay DIIS extrapolation
 SCF converges when DIIS error is below 1.0E-08
 using 8 threads for integral computing 
 ---------------------------------------
  Cycle       Energy         DIIS Error
 ---------------------------------------
    1    -435.3677298060      2.40E-06
    2    -435.3677297999      1.61E-06
    3    -435.3677298018      7.26E-07
    4    -435.3677298024      2.03E-07
    5    -435.3677298025      8.43E-08
    6    -435.3677298026      6.04E-08
    7    -435.3677298026      2.30E-08
    8    -435.3677298026      6.46E-09 Convergence criterion met
 ---------------------------------------
 <S^2> = 0.0000
 SCF time:  CPU 8.87 s  wall 2.16 s
 SCF   energy in the final basis set = -435.3677298026
 Total energy in the final basis set = -435.3677298026
================================================================================
|                                                                              |
|                                 A D C  M A N                                 |
|                                                                              |
 ------------------------------------------------------------------------------ 
|                                                                              |
| Components:                                                                  |
|                                                                              |
| - libvmm - 1.2-release                                                       |
|   Authors:                                                                   |
|   Evgeny Epifanovsky, Ilya Kaliman                                           |
|                                                                              |
| - libtensor - 2.4-trunk                                                      |
|   Authors:                                                                   |
|   Evgeny Epifanovsky, Michael Wormit, Dmitry Zuev, Sam Manzer                |
|                                                                              |
| - libwfa - 1.1-beta                                                          |
|   Authors:                                                                   |
|   Felix Plasser, Stefanie Baeppler, Benjamin Thomitzni, Michael Wormit       |
|                                                                              |
| - libadc - 1.0-beta                                                          |
|   Authors:                                                                   |
|   Michael Wormit, Philipp H. P. Harbach, Caroline Krauter, Dirk Rehn,        |
|   Matthias Schneider, Jan Wenzel                                             |
|                                                                              |
| - adcman - 2.4-beta                                                          |
|   Authors:                                                                   |
|   Michael Wormit, Philipp H. P. Harbach, Caroline Krauter, Dirk Rehn,        |
|   Jan Wenzel, Andreas Dreuw                                                  |
|                                                                              |
| Authors of earlier versions of ADCMAN:                                       |
| Andreas Dreuw, Jan Hendrik Starcke, Dirk Rehn, Michael Wormit                |
|                                                                              |
================================================================================

 
 Alpha MOs, Unrestricted
 -- Occupied --                  
-26.516 -26.509 -26.471 -26.131 -11.723  -1.899  -1.817  -1.751
  1 A     2 A     3 A     4 A     5 A     6 A     7 A     8 A                  
 -1.346  -1.089  -0.984  -0.967  -0.924  -0.837  -0.815  -0.812
  9 A    10 A    11 A    12 A    13 A    14 A    15 A    16 A                  
 -0.781  -0.773  -0.463  -0.463  -0.390
 17 A    18 A    19 A    20 A    21 A                                          
 -- Virtual --                   
 -0.057   0.280   0.320   0.367   0.586   0.609   0.635   0.658
 22 A    23 A    24 A    25 A    26 A    27 A    28 A    29 A                  
  1.208   1.215   1.242   1.280   1.282   1.316   1.501   1.503
 30 A    31 A    32 A    33 A    34 A    35 A    36 A    37 A                  
  1.507   1.533   1.540   1.546   1.628   1.632   1.658   1.841
 38 A    39 A    40 A    41 A    42 A    43 A    44 A    45 A                  
  1.850   1.865   1.966   1.985   2.000   2.035   2.053   2.070
 46 A    47 A    48 A    49 A    50 A    51 A    52 A    53 A                  
  2.156   2.182   2.228   2.247   2.307   2.307   2.329   2.335
 54 A    55 A    56 A    57 A    58 A    59 A    60 A    61 A                  
  2.384   2.608   2.738   2.746   3.008   3.040   3.289   3.304
 62 A    63 A    64 A    65 A    66 A    67 A    68 A    69 A                  
  3.375   4.018   4.490   4.513   4.676   4.935
 70 A    71 A    72 A    73 A    74 A    75 A                                  
 
 Beta MOs, Unrestricted
 -- Occupied --                  
-26.516 -26.509 -26.471 -26.131 -11.723  -1.899  -1.817  -1.751
  1 A     2 A     3 A     4 A     5 A     6 A     7 A     8 A                  
 -1.346  -1.089  -0.984  -0.967  -0.924  -0.837  -0.815  -0.812
  9 A    10 A    11 A    12 A    13 A    14 A    15 A    16 A                  
 -0.781  -0.773  -0.463  -0.463  -0.390
 17 A    18 A    19 A    20 A    21 A                                          
 -- Virtual --                   
 -0.057   0.280   0.320   0.367   0.586   0.609   0.635   0.658
 22 A    23 A    24 A    25 A    26 A    27 A    28 A    29 A                  
  1.208   1.215   1.242   1.280   1.282   1.316   1.501   1.503
 30 A    31 A    32 A    33 A    34 A    35 A    36 A    37 A                  
  1.507   1.533   1.540   1.546   1.628   1.632   1.658   1.841
 38 A    39 A    40 A    41 A    42 A    43 A    44 A    45 A                  
  1.850   1.865   1.966   1.985   2.000   2.035   2.053   2.070
 46 A    47 A    48 A    49 A    50 A    51 A    52 A    53 A                  
  2.156   2.182   2.228   2.247   2.307   2.307   2.329   2.335
 54 A    55 A    56 A    57 A    58 A    59 A    60 A    61 A                  
  2.384   2.608   2.738   2.746   3.008   3.040   3.289   3.304
 62 A    63 A    64 A    65 A    66 A    67 A    68 A    69 A                  
  3.375   4.018   4.490   4.513   4.676   4.935
 70 A    71 A    72 A    73 A    74 A    75 A                                  
 

--------------------------------------------------------------------------------
                                   HF Summary                                   
--------------------------------------------------------------------------------
  Energy:                                                 -435.3677298026 a.u.
  Dip. moment [a.u.]:                  [ -56.965279,  184.565081,    1.223815]
  Total dipole [Debye]:                                             490.963999
  <r^2> [a.u.]:                        [ 178.694176, 1037.644774,  109.291055]
  Total <r^2> [a.u.]:                                              1325.630005
--------------------------------------------------------------------------------

--------------------------------------------------------------------------------
                                 MP(2) Summary                                  
--------------------------------------------------------------------------------
  Energy contribution:                                      -0.8574095762 a.u.
  Total energy:                                           -436.2251393788 a.u.
  Dip. moment [a.u.]:                  [ -56.557290,  185.891132,    0.698403]
  Total dipole [Debye]:                                             493.876069
  <r^2> [a.u.]:                        [ 177.114226, 1043.836889,  108.609367]
  Total <r^2> [a.u.]:                                              1329.560482
--------------------------------------------------------------------------------
  Starting Davidson ... 
--------------------------------------------------------------------------------
   It NVec Conv  Avg. Norm  Max. Norm  Conv. states           Remark
--------------------------------------------------------------------------------
        20    0  2.044e-01  1.048e+00 10.9866 n n n n n n n n Guess.
    1   40    0  7.707e-02  9.947e-01 10.8128 n n n n n n n n 
    2   60    0  1.619e-02  2.480e-01 10.8104 n n n n n n n n 
    3   80    0  5.278e-03  5.827e-02 10.8103 n n n n n n n n 
    4  100    0  4.539e-03  7.094e-02 10.8103 n n n n n n n n 
    5   40    0  1.790e-03  2.595e-02 10.8103 n n n n n n n n Subspace collapsed.
    6   60    0  2.430e-03  3.808e-02 10.8103 n n n n n n n n 
    7   80    0  3.546e-03  5.067e-02 10.8103 n n n n n n n n 
    8  100    2  2.544e-03  3.766e-02 10.8103 y y n n n n n n 
    9   40    5  1.338e-03  2.090e-02 10.8103 y y y n n y y n Subspace collapsed.
   10   60    7  6.182e-04  9.575e-03 10.8103 y y y n y y y y 
   11   80    8  5.916e-04  1.055e-02 10.8103 y y y y y y y y 
   12  100   10  7.597e-04  1.434e-02 10.8103 y y y y y y y y 
   13   40   15  3.500e-04  6.231e-03 10.8103 y y y y y y y y Subspace collapsed.
   14   60   16  3.700e-04  5.765e-03 10.8103 y y y y y y y y 
   15   80   16  4.477e-04  7.015e-03 10.8103 y y y y y y y y 
   16  100   16  4.321e-04  7.242e-03 10.8103 y y y y y y y y 
   17   39   16  2.685e-04  4.600e-03 10.8103 y y y y y y y y Subspace collapsed.
   18   57   16  1.743e-04  3.118e-03 10.8103 y y y y y y y y 
   19   60   16  1.731e-04  3.095e-03 10.8103 y y y y y y y y 
   20   76   17  1.430e-04  2.643e-03 10.8103 y y y y y y y y 
   21   91   18  1.833e-04  3.525e-03 10.8103 y y y y y y y y 
   22  100   18  1.836e-04  3.517e-03 10.8103 y y y y y y y y 
   23   32   18  1.073e-04  1.988e-03 10.8103 y y y y y y y y Subspace collapsed.
   24   44   18  1.105e-04  1.994e-03 10.8103 y y y y y y y y 
   25   56   18  1.183e-04  2.037e-03 10.8103 y y y y y y y y 
   26   68   18  1.176e-04  2.021e-03 10.8103 y y y y y y y y 
   27   72   18  1.181e-04  2.040e-03 10.8103 y y y y y y y y 
   28   72   18  1.181e-04  2.040e-03 10.8103 y y y y y y y y 
   29   92   18  1.041e-04  1.961e-03 10.8103 y y y y y y y y 
   30   92   18  1.041e-04  1.961e-03 10.8103 y y y y y y y y 
   31   95   18  1.041e-04  1.960e-03 10.8103 y y y y y y y y 
   32   95   18  1.041e-04  1.960e-03 10.8103 y y y y y y y y 
   33   95   18  1.041e-04  1.960e-03 10.8103 y y y y y y y y 
   34  100   18  1.046e-04  1.962e-03 10.8103 y y y y y y y y 
   35   21   18  1.045e-04  1.960e-03 10.8103 y y y y y y y y Subspace collapsed.
   36   21   18  1.045e-04  1.960e-03 10.8103 y y y y y y y y 
   37   26   18  1.039e-04  1.950e-03 10.8103 y y y y y y y y 
   38   28   18  1.032e-04  1.940e-03 10.8103 y y y y y y y y 
   39   29   18  1.026e-04  1.928e-03 10.8103 y y y y y y y y 
   40   37   18  4.714e-05  8.747e-04 10.8103 y y y y y y y y 
   41   45   18  3.622e-05  6.867e-04 10.8103 y y y y y y y y 
   42   53   18  2.463e-05  4.750e-04 10.8103 y y y y y y y y 
   43   53   18  2.463e-05  4.750e-04 10.8103 y y y y y y y y 
   44   56   18  2.463e-05  4.751e-04 10.8103 y y y y y y y y 
   45   57   18  2.468e-05  4.761e-04 10.8103 y y y y y y y y 
   46   57   18  2.468e-05  4.761e-04 10.8103 y y y y y y y y 
   47   57   18  2.468e-05  4.761e-04 10.8103 y y y y y y y y 
   48   77   18  2.534e-05  4.978e-04 10.8103 y y y y y y y y 
   49   82   18  2.696e-05  5.309e-04 10.8103 y y y y y y y y 
   50   87   18  2.456e-05  4.785e-04 10.8103 y y y y y y y y 
   51   91   18  1.756e-05  3.363e-04 10.8103 y y y y y y y y 
   52   95   18  1.078e-05  2.050e-04 10.8103 y y y y y y y y 
   53   99   18  1.040e-05  2.018e-04 10.8103 y y y y y y y y 
   54  100   18  1.136e-05  2.222e-04 10.8103 y y y y y y y y 
   55   24   18  5.235e-06  9.843e-05 10.8103 y y y y y y y y Subspace collapsed.
   56   28   18  4.901e-06  9.151e-05 10.8103 y y y y y y y y 
   57   32   18  4.785e-06  8.924e-05 10.8103 y y y y y y y y 
   58   36   18  3.955e-06  7.290e-05 10.8103 y y y y y y y y 
   59   37   18  3.865e-06  7.109e-05 10.8103 y y y y y y y y 
--------------------------------------------------------------------------------
  Davidson Summary: 
 ------------------------------------------------------------
  State  0: excitation energy =  10.8103 a.u.   (converged)
  State  1: excitation energy =  10.8775 a.u.   (converged)
  State  2: excitation energy =  11.0653 a.u.   (converged)
  State  3: excitation energy =  11.1423 a.u.   (converged)
  State  4: excitation energy =  11.1435 a.u.   (converged)
  State  5: excitation energy =  11.1635 a.u.   (converged)
  State  6: excitation energy =  11.2146 a.u.   (converged)
  State  7: excitation energy =  11.2374 a.u.   (converged)
  State  8: excitation energy =  11.5152 a.u.   (converged)
  State  9: excitation energy =  11.5394 a.u.   (converged)
  State 10: excitation energy =  11.5403 a.u.   (converged)
  State 11: excitation energy =  11.5446 a.u.   (converged)
  State 12: excitation energy =  11.5577 a.u.   (converged)
  State 13: excitation energy =  11.5614 a.u.   (converged)
  State 14: excitation energy =  11.5682 a.u.   (converged)
  State 15: excitation energy =  11.6083 a.u.   (converged)
  State 16: excitation energy =  12.0162 a.u.   (converged)
  State 17: excitation energy =  12.0193 a.u.   (converged)
  State 18: excitation energy =  12.1729 a.u.   (not converged)
  State 19: excitation energy =  12.1775 a.u.   (not converged)
 ------------------------------------------------------------


--------------------------------------------------------------------------------
                             Excited State Summary
--------------------------------------------------------------------------------

  Excited state  1 (A)                                             [converged]
  ----------------------------------------------------------------------------
  Term symbol:  2 (-) A                                     R^2 =  1.74403e-13

  Total energy:                                           -425.4148379304 a.u.
  Excitation energy:                                             294.163263 eV

  Osc. strength:                                                      0.000000
  Trans. dip. moment [a.u.]:           [   0.000000,    0.000000,   -0.000000]
  <i|r^2|0> [a.u.]:                    [  -0.000000,    0.000000,    0.000000]

  V1^2 = 0.9453, V2^2 = 0.0547

  Important amplitudes:
     core i     occ j      vir a      vir b          v   
    ------------------------------------------------------
     5 (A) A              22 (A) A                 0.6522
     5 (A) B              22 (A) B                -0.6522
    ------------------------------------------------------
  ----------------------------------------------------------------------------


  Excited state  2 (A)                                             [converged]
  ----------------------------------------------------------------------------
  Term symbol:  3 (-) A                                     R^2 =  2.83088e-13

  Total energy:                                           -425.3476716190 a.u.
  Excitation energy:                                             295.990951 eV

  Osc. strength:                                                      0.075986
  Trans. dip. moment [a.u.]:           [   0.038560,    0.089150,   -0.032311]
  <i|r^2|0> [a.u.]:                    [  -0.095649,    0.892714,    0.011218]

  V1^2 = 0.9359, V2^2 = 0.0641

  Important amplitudes:
     core i     occ j      vir a      vir b          v   
    ------------------------------------------------------
     5 (A) B              22 (A) B                 0.6601
     5 (A) A              22 (A) A                 0.6601
    ------------------------------------------------------
  ----------------------------------------------------------------------------


  Excited state  3 (A)                                             [converged]
  ----------------------------------------------------------------------------
  Term symbol:  4 (-) A                                     R^2 =  1.72269e-13

  Total energy:                                           -425.1597924482 a.u.
  Excitation energy:                                             301.103403 eV

  Osc. strength:                                                      0.000000
  Trans. dip. moment [a.u.]:           [   0.000000,    0.000000,   -0.000000]
  <i|r^2|0> [a.u.]:                    [  -0.000000,    0.000000,    0.000000]

  V1^2 = 0.9425, V2^2 = 0.0575

  Important amplitudes:
     core i     occ j      vir a      vir b          v   
    ------------------------------------------------------
     5 (A) B              23 (A) B                -0.5299
     5 (A) A              23 (A) A                 0.5299
    ------------------------------------------------------
  ----------------------------------------------------------------------------


  Excited state  4 (A)                                             [converged]
  ----------------------------------------------------------------------------
  Term symbol:  5 (-) A                                     R^2 =  3.28017e-13

  Total energy:                                           -425.0828209946 a.u.
  Excitation energy:                                             303.197903 eV

  Osc. strength:                                                      0.097939
  Trans. dip. moment [a.u.]:           [   0.041289,   -0.076149,   -0.075374]
  <i|r^2|0> [a.u.]:                    [  -0.105625,   -0.779463,    0.036190]

  V1^2 = 0.9330, V2^2 = 0.0670

  Important amplitudes:
     core i     occ j      vir a      vir b          v   
    ------------------------------------------------------
     5 (A) A              23 (A) A                -0.5353
     5 (A) B              23 (A) B                -0.5353
    ------------------------------------------------------
  ----------------------------------------------------------------------------


  Excited state  5 (A)                                             [converged]
  ----------------------------------------------------------------------------
  Term symbol:  6 (-) A                                     R^2 =  1.48554e-13

  Total energy:                                           -425.0816108025 a.u.
  Excitation energy:                                             303.230834 eV

  Osc. strength:                                                      0.000000
  Trans. dip. moment [a.u.]:           [   0.000000,   -0.000000,   -0.000000]
  <i|r^2|0> [a.u.]:                    [  -0.000000,   -0.000000,    0.000000]

  V1^2 = 0.9272, V2^2 = 0.0728

  Important amplitudes:
     core i     occ j      vir a      vir b          v   
    ------------------------------------------------------
     5 (A) A              24 (A) A                -0.4863
     5 (A) B              24 (A) B                 0.4863
    ------------------------------------------------------
  ----------------------------------------------------------------------------


  Excited state  6 (A)                                             [converged]
  ----------------------------------------------------------------------------
  Term symbol:  7 (-) A                                     R^2 =  8.30701e-14

  Total energy:                                           -425.0616598236 a.u.
  Excitation energy:                                             303.773728 eV

  Osc. strength:                                                      0.000000
  Trans. dip. moment [a.u.]:           [   0.000000,   -0.000000,    0.000000]
  <i|r^2|0> [a.u.]:                    [  -0.000000,   -0.000000,   -0.000000]

  V1^2 = 0.9459, V2^2 = 0.0541

  Important amplitudes:
     core i     occ j      vir a      vir b          v   
    ------------------------------------------------------
     5 (A) B              25 (A) B                 0.5420
     5 (A) A              25 (A) A                -0.5420
    ------------------------------------------------------
  ----------------------------------------------------------------------------


  Excited state  7 (A)                                             [converged]
  ----------------------------------------------------------------------------
  Term symbol:  8 (-) A                                     R^2 =  1.68246e-13

  Total energy:                                           -425.0105169495 a.u.
  Excitation energy:                                             305.165396 eV

  Osc. strength:                                                      0.040870
  Trans. dip. moment [a.u.]:           [   0.053902,    0.014818,   -0.048390]
  <i|r^2|0> [a.u.]:                    [  -0.108861,    0.173489,    0.045497]

  V1^2 = 0.9115, V2^2 = 0.0885

  Important amplitudes:
     core i     occ j      vir a      vir b          v   
    ------------------------------------------------------
     5 (A) B              24 (A) B                -0.5102
     5 (A) A              24 (A) A                -0.5102
    ------------------------------------------------------
  ----------------------------------------------------------------------------


  Excited state  8 (A)                                             [converged]
  ----------------------------------------------------------------------------
  Term symbol:  9 (-) A                                     R^2 =  7.95246e-14

  Total energy:                                           -424.9876937043 a.u.
  Excitation energy:                                             305.786448 eV

  Osc. strength:                                                      0.109895
  Trans. dip. moment [a.u.]:           [  -0.092501,    0.018799,   -0.075890]
  <i|r^2|0> [a.u.]:                    [   0.216848,    0.192347,    0.040983]

  V1^2 = 0.9352, V2^2 = 0.0648

  Important amplitudes:
     core i     occ j      vir a      vir b          v   
    ------------------------------------------------------
     5 (A) A              25 (A) A                -0.5842
     5 (A) B              25 (A) B                -0.5842
    ------------------------------------------------------
  ----------------------------------------------------------------------------


  Excited state  9 (A)                                             [converged]
  ----------------------------------------------------------------------------
  Term symbol:  10 (-) A                                    R^2 =  3.90922e-13

  Total energy:                                           -424.7099077900 a.u.
  Excitation energy:                                             313.345387 eV

  Osc. strength:                                                      0.000000
  Trans. dip. moment [a.u.]:           [  -0.000000,   -0.000000,    0.000000]
  <i|r^2|0> [a.u.]:                    [   0.000000,   -0.000000,   -0.000000]

  V1^2 = 0.8787, V2^2 = 0.1213

  Important amplitudes:
     core i     occ j      vir a      vir b          v   
    ------------------------------------------------------
     5 (A) A              27 (A) A                 0.5539
     5 (A) B              27 (A) B                -0.5539
    ------------------------------------------------------
  ----------------------------------------------------------------------------


  Excited state 10 (A)                                             [converged]
  ----------------------------------------------------------------------------
  Term symbol:  11 (-) A                                    R^2 =  2.22757e-13

  Total energy:                                           -424.6857236649 a.u.
  Excitation energy:                                             314.003471 eV

  Osc. strength:                                                      0.000000
  Trans. dip. moment [a.u.]:           [  -0.000000,   -0.000000,   -0.000000]
  <i|r^2|0> [a.u.]:                    [   0.000000,   -0.000000,    0.000000]

  V1^2 = 0.8731, V2^2 = 0.1269

  Important amplitudes:
     core i     occ j      vir a      vir b          v   
    ------------------------------------------------------
     5 (A) A              28 (A) A                -0.5208
     5 (A) B              28 (A) B                 0.5208
    ------------------------------------------------------
  ----------------------------------------------------------------------------


  Excited state 11 (A)                                             [converged]
  ----------------------------------------------------------------------------
  Term symbol:  12 (-) A                                    R^2 =  4.33730e-13

  Total energy:                                           -424.6848154505 a.u.
  Excitation energy:                                             314.028185 eV

  Osc. strength:                                                      0.000000
  Trans. dip. moment [a.u.]:           [   0.000000,   -0.000000,   -0.000000]
  <i|r^2|0> [a.u.]:                    [  -0.000000,   -0.000000,    0.000000]

  V1^2 = 0.8726, V2^2 = 0.1274

  Important amplitudes:
     core i     occ j      vir a      vir b          v   
    ------------------------------------------------------
     5 (A) A              26 (A) A                 0.5819
     5 (A) B              26 (A) B                -0.5819
    ------------------------------------------------------
  ----------------------------------------------------------------------------


  Excited state 12 (A)                                             [converged]
  ----------------------------------------------------------------------------
  Term symbol:  13 (-) A                                    R^2 =  1.08102e-13

  Total energy:                                           -424.6805797969 a.u.
  Excitation energy:                                             314.143443 eV

  Osc. strength:                                                      0.028342
  Trans. dip. moment [a.u.]:           [  -0.038986,   -0.021858,    0.041047]
  <i|r^2|0> [a.u.]:                    [   0.076302,   -0.233771,   -0.037763]

  V1^2 = 0.8801, V2^2 = 0.1199

  Important amplitudes:
     core i     occ j      vir a      vir b          v   
    ------------------------------------------------------
     5 (A) B              27 (A) B                 0.6140
     5 (A) A              27 (A) A                 0.6140
    ------------------------------------------------------
  ----------------------------------------------------------------------------


  Excited state 13 (A)                                             [converged]
  ----------------------------------------------------------------------------
  Term symbol:  14 (-) A                                    R^2 =  1.88721e-13

  Total energy:                                           -424.6673901277 a.u.
  Excitation energy:                                             314.502352 eV

  Osc. strength:                                                      0.028911
  Trans. dip. moment [a.u.]:           [  -0.009650,    0.049618,    0.034599]
  <i|r^2|0> [a.u.]:                    [   0.026588,    0.507062,   -0.016588]

  V1^2 = 0.8745, V2^2 = 0.1255

  Important amplitudes:
     core i     occ j      vir a      vir b          v   
    ------------------------------------------------------
     5 (A) B              26 (A) B                -0.6172
     5 (A) A              26 (A) A                -0.6172
    ------------------------------------------------------
  ----------------------------------------------------------------------------


  Excited state 14 (A)                                             [converged]
  ----------------------------------------------------------------------------
  Term symbol:  15 (-) A                                    R^2 =  1.79356e-13

  Total energy:                                           -424.6637527157 a.u.
  Excitation energy:                                             314.601331 eV

  Osc. strength:                                                      0.039218
  Trans. dip. moment [a.u.]:           [  -0.058360,    0.008590,   -0.040108]
  <i|r^2|0> [a.u.]:                    [   0.136743,    0.091286,    0.027125]

  V1^2 = 0.8790, V2^2 = 0.1210

  Important amplitudes:
     core i     occ j      vir a      vir b          v   
    ------------------------------------------------------
     5 (A) B              28 (A) B                -0.5740
     5 (A) A              28 (A) A                -0.5740
    ------------------------------------------------------
  ----------------------------------------------------------------------------


  Excited state 15 (A)                                             [converged]
  ----------------------------------------------------------------------------
  Term symbol:  16 (-) A                                    R^2 =  4.29030e-13

  Total energy:                                           -424.6568964584 a.u.
  Excitation energy:                                             314.787899 eV

  Osc. strength:                                                      0.000000
  Trans. dip. moment [a.u.]:           [  -0.000000,   -0.000000,    0.000000]
  <i|r^2|0> [a.u.]:                    [   0.000000,   -0.000000,    0.000000]

  V1^2 = 0.8575, V2^2 = 0.1425

  Important amplitudes:
     core i     occ j      vir a      vir b          v   
    ------------------------------------------------------
     5 (A) A              29 (A) A                 0.6224
     5 (A) B              29 (A) B                -0.6224
    ------------------------------------------------------
  ----------------------------------------------------------------------------


  Excited state 16 (A)                                             [converged]
  ----------------------------------------------------------------------------
  Term symbol:  17 (-) A                                    R^2 =  8.10378e-13

  Total energy:                                           -424.6167942569 a.u.
  Excitation energy:                                             315.879136 eV

  Osc. strength:                                                      0.020811
  Trans. dip. moment [a.u.]:           [  -0.012242,   -0.045360,    0.021947]
  <i|r^2|0> [a.u.]:                    [   0.046251,   -0.440465,    0.005587]

  V1^2 = 0.8612, V2^2 = 0.1388

  Important amplitudes:
     core i     occ j      vir a      vir b          v   
    ------------------------------------------------------
     5 (A) B              29 (A) B                 0.6418
     5 (A) A              29 (A) A                 0.6418
    ------------------------------------------------------
  ----------------------------------------------------------------------------


  Excited state 17 (A)                                             [converged]
  ----------------------------------------------------------------------------
  Term symbol:  18 (-) A                                    R^2 =  8.40277e-12

  Total energy:                                           -424.2089447719 a.u.
  Excitation energy:                                             326.977284 eV

  Osc. strength:                                                      0.000000
  Trans. dip. moment [a.u.]:           [   0.000000,    0.000000,   -0.000000]
  <i|r^2|0> [a.u.]:                    [  -0.000000,    0.000000,   -0.000000]

  V1^2 = 0.0363, V2^2 = 0.9637

  Important amplitudes:
     core i     occ j      vir a      vir b          v   
    ------------------------------------------------------
     5 (A) A   21 (A) B   22 (A) A   22 (A) B     -0.4882
     5 (A) B   21 (A) A   22 (A) A   22 (A) B     -0.4882
    ------------------------------------------------------
  ----------------------------------------------------------------------------


  Excited state 18 (A)                                             [converged]
  ----------------------------------------------------------------------------
  Term symbol:  19 (-) A                                    R^2 =  1.25620e-11

  Total energy:                                           -424.2058315947 a.u.
  Excitation energy:                                             327.061998 eV

  Osc. strength:                                                      0.000916
  Trans. dip. moment [a.u.]:           [   0.003645,    0.009479,   -0.003343]
  <i|r^2|0> [a.u.]:                    [  -0.011256,    0.093160,   -0.001029]

  V1^2 = 0.0403, V2^2 = 0.9597

  Important amplitudes:
     core i     occ j      vir a      vir b          v   
    ------------------------------------------------------
     5 (A) B   21 (A) A   22 (A) A   22 (A) B      0.4868
     5 (A) A   21 (A) B   22 (A) A   22 (A) B     -0.4868
    ------------------------------------------------------
  ----------------------------------------------------------------------------


  Excited state 19 (A)                                         [not converged]
  ----------------------------------------------------------------------------
  Term symbol:  20 (-) A                                    R^2 =  7.10854e-05

  Total energy:                                           -424.0522746528 a.u.
  Excitation energy:                                             331.240495 eV


  V1^2 = 0.8511, V2^2 = 0.1489

  Important amplitudes:
     core i     occ j      vir a      vir b          v   
    ------------------------------------------------------
     5 (A) A              30 (A) A                -0.5725
     5 (A) B              30 (A) B                 0.5725
    ------------------------------------------------------
  ----------------------------------------------------------------------------


  Excited state 20 (A)                                         [not converged]
  ----------------------------------------------------------------------------
  Term symbol:  21 (-) A                                    R^2 =  3.03924e-05

  Total energy:                                           -424.0476241931 a.u.
  Excitation energy:                                             331.367041 eV


  V1^2 = 0.8508, V2^2 = 0.1492

  Important amplitudes:
     core i     occ j      vir a      vir b          v   
    ------------------------------------------------------
     5 (A) B              30 (A) B                 0.5702
     5 (A) A              30 (A) A                 0.5702
    ------------------------------------------------------
  ----------------------------------------------------------------------------


--------------------------------------------------------------------------------
  Time of ADC calculation:  CPU 3297.96 s  wall 1992.36 s
================================================================================
 
 --------------------------------------------------------------
 
                    Orbital Energies (a.u.)
 --------------------------------------------------------------
 
 Alpha MOs
 -- Occupied --
-26.516 -26.509 -26.471 -26.131 -11.723  -1.899  -1.817  -1.751
 -1.346  -1.089  -0.984  -0.967  -0.924  -0.837  -0.815  -0.812
 -0.781  -0.773  -0.463  -0.463  -0.390
 -- Virtual --
 -0.057   0.280   0.320   0.367   0.586   0.609   0.635   0.658
  1.208   1.215   1.242   1.280   1.282   1.316   1.501   1.503
  1.507   1.533   1.540   1.546   1.628   1.632   1.658   1.841
  1.850   1.865   1.966   1.985   2.000   2.035   2.053   2.070
  2.156   2.182   2.228   2.247   2.307   2.307   2.329   2.335
  2.384   2.608   2.738   2.746   3.008   3.040   3.289   3.304
  3.375   4.018   4.490   4.513   4.676   4.935
 
 Beta MOs
 -- Occupied --
-26.516 -26.509 -26.471 -26.131 -11.723  -1.899  -1.817  -1.751
 -1.346  -1.089  -0.984  -0.967  -0.924  -0.837  -0.815  -0.812
 -0.781  -0.773  -0.463  -0.463  -0.390
 -- Virtual --
 -0.057   0.280   0.320   0.367   0.586   0.609   0.635   0.658
  1.208   1.215   1.242   1.280   1.282   1.316   1.501   1.503
  1.507   1.533   1.540   1.546   1.628   1.632   1.658   1.841
  1.850   1.865   1.966   1.985   2.000   2.035   2.053   2.070
  2.156   2.182   2.228   2.247   2.307   2.307   2.329   2.335
  2.384   2.608   2.738   2.746   3.008   3.040   3.289   3.304
  3.375   4.018   4.490   4.513   4.676   4.935
 --------------------------------------------------------------
 
          Ground-State Mulliken Net Atomic Charges

     Atom                 Charge (a.u.)    Spin (a.u.)
  --------------------------------------------------------
      1 C                     1.154373       0.000000
      2 F                    -0.163556       0.000000
      3 F                    -0.258890       0.000000
      4 F                    -0.573711       0.000000
      5 F                    -0.158216       0.000000
  --------------------------------------------------------
  Sum of atomic charges =     0.000000
  Sum of spin   charges =     0.000000

 -----------------------------------------------------------------
                    Cartesian Multipole Moments
 -----------------------------------------------------------------
    Charge (ESU x 10^10)
                 0.0000
    Dipole Moment (Debye)
         X       2.2588      Y       6.1699      Z      -2.8491
       Tot       7.1615
    Quadrupole Moments (Debye-Ang)
        XX     -27.7922     XY      -2.3457     YY      -5.7566
        XZ       3.3490     YZ      -3.1274     ZZ     -24.9687
    Octopole Moments (Debye-Ang^2)
       XXX      57.9930    XXY     -54.1931    XYY       9.0278
       YYY    -117.5961    XXZ      -4.7481    XYZ       2.7276
       YYZ      -7.9689    XZZ      19.0035    YZZ     -54.6905
       ZZZ      -3.0097
    Hexadecapole Moments (Debye-Ang^3)
      XXXX    -167.5690   XXXY     102.9691   XXYY    -182.3519
      XYYY      83.2045   YYYY    -839.7427   XXXZ      13.6043
      XXYZ       3.3255   XYYZ       7.5605   YYYZ      -4.1704
      XXZZ     -44.3044   XYZZ      33.9858   YYZZ    -173.5981
      XZZZ      10.0318   YZZZ      17.0881   ZZZZ     -91.5561
 -----------------------------------------------------------------
Archival summary:
1\1\tp-linux1\SP\HF\6-31G*\41\thomas\FriMar1712:55:282017FriMar1712:55:282017\0\\#,HF,6-31G*,\\0,1\C\F,1,1.24978\F,1,1.25772,2,117.789\F,1,1.35744,2,111.816,3,-132.218,0\F,1,2.70711,2,108.119,3,111.685,0\\HF=-435.36773\\@

 Total job time:  1996.69s(wall), 3311.10s(cpu) 
 Fri Mar 17 12:55:28 2017

        *************************************************************
        *                                                           *
        *  Thank you very much for using Q-Chem.  Have a nice day.  *
        *                                                           *
        *************************************************************


0 sent ACK to 0 
now end server 0 ... 
cleanup process ... done
