
Running Job 1 of 2 ddtraj1t36.inp
qchem ddtraj1t36.inp_2859.0 /scratch/qchem/qchem2859/ 1
/mnt/software/qchem/bin/mpi/mpirun_qchem -machinefile /mnt/software/qchem/bin/mpi/machines -np 1 /mnt/software/qchem/exe/qcprog.exe ddtraj1t36.inp_2859.0 /scratch/qchem/qchem2859/

Process 0 of 1 is on tp-linux1 - thread support 0
initial socket setup ...start
initial socket setup ...done 
now start server 0 ... 

cmd = ssh tp-linux1 /mnt/software/qchem/bin/get_hostid 1422817886 > /scratch/qchem/qchem2859/lic.dat
                  Welcome to Q-Chem
     A Quantum Leap Into The Future Of Chemistry


 Q-Chem 4.3, Q-Chem, Inc., Pleasanton, CA (2015)

 Y. Shao,  Z. Gan,  E. Epifanovsky,  A. T. B. Gilbert,  M. Wormit,  
 J. Kussmann,  A. W. Lange,  A. Behn,  J. Deng,  X. Feng,  D. Ghosh,  
 M. Goldey,  P. R. Horn,  L. D. Jacobson,  I. Kaliman,  R. Z. Khaliullin,  
 T. Kus,  A. Landau,  J. Liu,  E. I. Proynov,  Y. M. Rhee,  R. M. Richard,  
 M. A. Rohrdanz,  R. P. Steele,  E. J. Sundstrom,  H. L. Woodcock III,  
 P. M. Zimmerman,  D. Zuev,  B. Albrecht,  E. Alguire,  B. Austin,  
 S. A. Baeppler,  G. J. O. Beran,  Y. A. Bernard,  E. Berquist,  
 K. Brandhorst,  K. B. Bravaya,  S. T. Brown,  D. Casanova,  C.-M. Chang,  
 Y. Chen,  S. H. Chien,  K. D. Closser,  D. L. Crittenden,  M. Diedenhofen,  
 R. A. DiStasio Jr.,  H. Do,  A. D. Dutoi,  R. G. Edgar,  P.-T. Fang,  
 S. Fatehi,  Q. Feng,  L. Fusti-Molnar,  A. Ghysels,  
 A. Golubeva-Zadorozhnaya,  J. Gomes,  A. Gunina,  M. W. D. Hanson-Heine,  
 P. H. P. Harbach,  A. W. Hauser,  E. G. Hohenstein,  Z. C. Holden,  K. Hui,  
 T.-C. Jagau,  H. Ji,  B. Kaduk,  K. Khistyaev,  Jaehoon Kim,  Jihan Kim,  
 R. A. King,  P. Klunzinger,  D. Kosenkov,  T. Kowalczyk,  C. M. Krauter,  
 K. U. Lao,  A. Laurent,  K. V. Lawler,  S. Lehtola,  S. V. Levchenko,  
 C. Y. Lin,  Y.-S. Lin,  F. Liu,  E. Livshits,  R. C. Lochan,  A. Luenser,  
 P. Manohar,  S. F. Manzer,  S.-P. Mao,  N. Mardirossian,  A. V. Marenich,  
 L. A. Martinez-Martinez,  S. A. Maurer,  N. J. Mayhall,  K. Nanda,  
 C. M. Oana,  R. Olivares-Amaya,  D. P. O'Neill,  J. A. Parkhill,  
 T. M. Perrine,  R. Peverati,  P. A. Pieniazek,  F. Plasser,  A. Prociuk,  
 D. R. Rehn,  E. Rosta,  N. J. Russ,  N. Sergueev,  S. M. Sharada,  
 S. Sharma,  D. W. Small,  A. Sodt,  T. Stauch,  T. Stein,  D. Stuck,  
 Y.-C. Su,  A. J. W. Thom,  T. Tsuchimochi,  L. Vogt,  O. Vydrov,  T. Wang,  
 M. A. Watson,  J. Wenzel,  A. White,  C. F. Williams,  V. Vanovschi,  
 S. Yeganeh,  S. R. Yost,  Z.-Q. You,  I. Y. Zhang,  X. Zhang,  Y. Zhao,  
 B. R. Brooks,  G. K. L. Chan,  D. M. Chipman,  C. J. Cramer,  
 W. A. Goddard III,  M. S. Gordon,  W. J. Hehre,  A. Klamt,  
 H. F. Schaefer III,  M. W. Schmidt,  C. D. Sherrill,  D. G. Truhlar,  
 A. Warshel,  X. Xu,  A. Aspuru-Guzik,  R. Baer,  A. T. Bell,  N. A. Besley,  
 J.-D. Chai,  A. Dreuw,  B. D. Dunietz,  T. R. Furlani,  S. R. Gwaltney,  
 C.-P. Hsu,  Y. Jung,  J. Kong,  D. S. Lambrecht,  W. Liang,  C. Ochsenfeld,  
 V. A. Rassolov,  L. V. Slipchenko,  J. E. Subotnik,  T. Van Voorhis,  
 J. M. Herbert,  A. I. Krylov,  P. M. W. Gill,  M. Head-Gordon

 Contributors to earlier versions of Q-Chem not listed above: 
 R. D. Adamson,  J. Baker,  E. F. C. Byrd,  A. K. Chakraborty,  C.-L. Cheng,  
 H. Dachsel,  R. J. Doerksen,  G. Hawkins,  A. Heyden,  S. Hirata,  
 G. Kedziora,  F. J. Keil,  C. Kelley,  P. P. Korambath,  W. Kurlancheek,  
 A. M. Lee,  M. S. Lee,  D. Liotard,  I. Lotan,  P. E. Maslen,  N. Nair,  
 D. Neuhauser,  R. Olson,  B. Peters,  J. Ritchie,  N. E. Schultz,  
 N. Shenvi,  A. C. Simmonett,  K. S. Thanthiriwatte,  Q. Wu,  W. Zhang

 Please cite Q-Chem as follows:
 Y. Shao et al., Mol. Phys. 113, 184-215 (2015)
 DOI: 10.1080/00268976.2014.952696

 Q-Chem 4.3.0 for Intel X86 Linux

 Parts of Q-Chem use Armadillo 5.200.1 (Boston Tea Smuggler).
 http://arma.sourceforge.net/

 Q-Chem begins on Thu Mar 16 05:51:14 2017  

Host: 
0

     Scratch files written to /scratch/qchem/qchem2859//
 Nov1815 1189b_ 19540  19532 5443   
 Parallel job on  1  processors
Processing $rem in /mnt/software/qchem/config/preferences.
 MEM_TOTAL  2000 

Checking the input file for inconsistencies... 	...done.

--------------------------------------------------------------
User input:
--------------------------------------------------------------
$comment
XAS calculation for the 2b valence excited for water using cvs-adc(2)-x + 6-311+G* basis set
job 1 - determination of HF orbitals
$end

$molecule
0 1
6  -0.571782  2.684256  -0.12654
9  0.682852  2.577217  -0.099159
9  -1.051067  3.477775  0.690843
9  -1.471029  0.327791  0.800577
9  -1.036863  2.803968  -1.313856
$end

$rem
jobtype      sp
sym_ignore true
exchange     hf
basis        6-31G*
unrestricted true
$end

--------------------------------------------------------------
 ----------------------------------------------------------------
             Standard Nuclear Orientation (Angstroms)
    I     Atom           X                Y                Z
 ----------------------------------------------------------------
    1      C      -0.5717820000     2.6842560000    -0.1265400000
    2      F       0.6828520000     2.5772170000    -0.0991590000
    3      F      -1.0510670000     3.4777750000     0.6908430000
    4      F      -1.4710290000     0.3277910000     0.8005770000
    5      F      -1.0368630000     2.8039680000    -1.3138560000
 ----------------------------------------------------------------
 Nuclear Repulsion Energy =   179.3519003455 hartrees
 There are       21 alpha and       21 beta electrons
 Requested basis set is 6-31G(d)
 There are 20 shells and 75 basis functions

 Total QAlloc Memory Limit   2000 MB
 Mega-Array Size        61 MB
 MEM_STATIC part        62 MB

                       Distance Matrix (Angstroms)
             C (  1)   F (  2)   F (  3)   F (  4)
   F (  2)  1.259489
   F (  3)  1.235921  2.107506
   F (  4)  2.687214  3.241704  3.179750
   F (  5)  1.280762  2.117622  2.114955  3.284932
 
 tim1(1): 
  0.000000000000000E+000
 tim1(2): 
  0.000000000000000E+000
 A cutoff of  1.0D-08 yielded    185 shell pairs
 There are      2818 function pairs
 
 -------------------------------------------------------
 OpenMP Integral Computing Module                       
 Release: version 1.0, May 2013, Q-Chem Inc. Pittsburgh 
 -------------------------------------------------------
 Integral Job Info:
 Integral job number is                      11
 Integral operator is                         1
 short-range coefficients                     0
 long-range coefficients              100000000
 Omega coefficients                           0
 if combine SR and LR in K                    0
 Integral screening is                        0
 Integral computing path is                   2
 max size of driver memory is            800000
 size of driver memory is                593474
 size of scratch memory is              2260544
 max col of scratch BK array               1296
 max len of scratch array in speh3          155
 max len of scratch index in speh4           18
 max int batch size is                      520
 min int batch size is                       52
 fixed nKL is                                52
 max L of basis functions is                  2
 order of int derivative is                   0
 number of shells is                         20
 number of basis is                          75
 number of cartesian basis is                75
 number of contracted shell pairs           185
 number of primitive shell pairs            895
 maxK2 (contraction) of shell pair           36
 max number of K2 of shell pair               1
 max number of CS2 of shell pair             29
 max number of PS2 of shell pair            180
 mem total for path MDJ                   18100
 -------------------------------------------------------
 Smallest overlap matrix eigenvalue = 3.35E-03

 Scale SEOQF with 1.000000e+00/1.000000e-01/1.000000e+00

 Standard Electronic Orientation quadrupole field applied
 Nucleus-field energy     =     0.0000000088 hartrees
 Guess from superposition of atomic densities
 Warning:  Energy on first SCF cycle will be non-variational
 An unrestricted Hartree-Fock SCF calculation will be
 performed using Pulay DIIS extrapolation
 SCF converges when DIIS error is below 1.0E-05
 using 8 threads for integral computing 
 ---------------------------------------
  Cycle       Energy         DIIS Error
 ---------------------------------------
    1    -436.1059969053      8.45E-02
    2    -435.1016588069      2.11E-02
    3    -434.7637060488      3.17E-02
    4    -435.3634954643      5.56E-03
    5    -435.3803513351      1.60E-03
    6    -435.3820169893      2.87E-04
    7    -435.3821162924      1.47E-04
    8    -435.3821317101      4.71E-05
    9    -435.3821344323      1.29E-05
   10    -435.3821351294      7.61E-06 Convergence criterion met
 ---------------------------------------
 <S^2> = 0.0000
 SCF time:  CPU 9.80 s  wall 26.70 s
 SCF   energy in the final basis set = -435.3821351294
 Total energy in the final basis set = -435.3821351294
 
 --------------------------------------------------------------
 
                    Orbital Energies (a.u.)
 --------------------------------------------------------------
 
 Alpha MOs
 -- Occupied --
-26.512 -26.503 -26.495 -26.115 -11.721  -1.916  -1.816  -1.795
 -1.333  -1.095  -0.994  -0.990  -0.936  -0.841  -0.836  -0.810
 -0.802  -0.785  -0.450  -0.450  -0.386
 -- Virtual --
 -0.040   0.310   0.356   0.372   0.598   0.610   0.630   0.664
  1.211   1.220   1.227   1.284   1.286   1.315   1.503   1.510
  1.516   1.519   1.527   1.530   1.639   1.641   1.657   1.850
  1.859   1.863   1.971   1.978   2.000   2.051   2.059   2.070
  2.203   2.209   2.227   2.287   2.317   2.317   2.348   2.349
  2.402   2.710   2.756   2.791   3.059   3.078   3.331   3.346
  3.388   4.035   4.494   4.632   4.689   4.990
 
 Beta MOs
 -- Occupied --
-26.512 -26.503 -26.495 -26.115 -11.721  -1.916  -1.816  -1.795
 -1.333  -1.095  -0.994  -0.990  -0.936  -0.841  -0.836  -0.810
 -0.802  -0.785  -0.450  -0.450  -0.386
 -- Virtual --
 -0.040   0.310   0.356   0.372   0.598   0.610   0.630   0.664
  1.211   1.220   1.227   1.284   1.286   1.315   1.503   1.510
  1.516   1.519   1.527   1.530   1.639   1.641   1.657   1.850
  1.859   1.863   1.971   1.978   2.000   2.051   2.059   2.070
  2.203   2.209   2.227   2.287   2.317   2.317   2.348   2.349
  2.402   2.710   2.756   2.791   3.059   3.078   3.331   3.346
  3.388   4.035   4.494   4.632   4.689   4.990
 --------------------------------------------------------------
 
          Ground-State Mulliken Net Atomic Charges

     Atom                 Charge (a.u.)    Spin (a.u.)
  --------------------------------------------------------
      1 C                     1.127731       0.000000
      2 F                    -0.176323       0.000000
      3 F                    -0.147499       0.000000
      4 F                    -0.604061       0.000000
      5 F                    -0.199849       0.000000
  --------------------------------------------------------
  Sum of atomic charges =     0.000000
  Sum of spin   charges =     0.000000

 -----------------------------------------------------------------
                    Cartesian Multipole Moments
 -----------------------------------------------------------------
    Charge (ESU x 10^10)
                 0.0000
    Dipole Moment (Debye)
         X       2.5031      Y       6.6413      Z      -2.4267
       Tot       7.5008
    Quadrupole Moments (Debye-Ang)
        XX     -28.5744     XY      -2.7996     YY      -2.7284
        XZ       3.2460     YZ      -1.3974     ZZ     -25.2979
    Octopole Moments (Debye-Ang^2)
       XXX      58.9133    XXY     -53.8629    XYY       5.4499
       YYY    -103.6942    XXZ      -4.9817    XYZ       1.3000
       YYZ      -2.0220    XZZ      19.3758    YZZ     -54.8201
       ZZZ      -2.4286
    Hexadecapole Moments (Debye-Ang^3)
      XXXX    -174.0378   XXXY      96.5095   XXYY    -175.9179
      XYYY      62.4982   YYYY    -764.5490   XXXZ      16.4931
      XXYZ       5.4142   XYYZ       2.9099   YYYZ      17.1119
      XXZZ     -46.1520   XYZZ      32.3461   YYZZ    -170.4847
      XZZZ      12.0623   YZZZ      21.1532   ZZZZ     -93.5233
 -----------------------------------------------------------------
Archival summary:
1\1\tp-linux1\SP\HF\6-31G*\41\thomas\ThuMar1605:51:412017ThuMar1605:51:412017\0\\#,HF,6-31G*,\\0,1\C\F,1,1.23592\F,1,1.25949,2,115.245\F,1,1.28076,2,114.348,3,133.348,0\F,1,2.68721,2,101.834,3,-112.501,0\\HF=-435.382135\\@

 Total job time:  27.02s(wall), 11.54s(cpu) 
 Thu Mar 16 05:51:41 2017

        *************************************************************
        *                                                           *
        *  Thank you very much for using Q-Chem.  Have a nice day.  *
        *                                                           *
        *************************************************************


0 sent ACK to 0 
now end server 0 ... 
cleanup process ... done

Running Job 2 of 2 ddtraj1t36.inp
qchem ddtraj1t36.inp_2859.1 /scratch/qchem/qchem2859/ 1
/mnt/software/qchem/bin/mpi/mpirun_qchem -machinefile /mnt/software/qchem/bin/mpi/machines -np 1 /mnt/software/qchem/exe/qcprog.exe ddtraj1t36.inp_2859.1 /scratch/qchem/qchem2859/

Process 0 of 1 is on tp-linux1 - thread support 0
initial socket setup ...start
initial socket setup ...done 
now start server 0 ... 

cmd = ssh tp-linux1 /mnt/software/qchem/bin/get_hostid 899096876 > /scratch/qchem/qchem2859/lic.dat
                  Welcome to Q-Chem
     A Quantum Leap Into The Future Of Chemistry


 Q-Chem 4.3, Q-Chem, Inc., Pleasanton, CA (2015)

 Y. Shao,  Z. Gan,  E. Epifanovsky,  A. T. B. Gilbert,  M. Wormit,  
 J. Kussmann,  A. W. Lange,  A. Behn,  J. Deng,  X. Feng,  D. Ghosh,  
 M. Goldey,  P. R. Horn,  L. D. Jacobson,  I. Kaliman,  R. Z. Khaliullin,  
 T. Kus,  A. Landau,  J. Liu,  E. I. Proynov,  Y. M. Rhee,  R. M. Richard,  
 M. A. Rohrdanz,  R. P. Steele,  E. J. Sundstrom,  H. L. Woodcock III,  
 P. M. Zimmerman,  D. Zuev,  B. Albrecht,  E. Alguire,  B. Austin,  
 S. A. Baeppler,  G. J. O. Beran,  Y. A. Bernard,  E. Berquist,  
 K. Brandhorst,  K. B. Bravaya,  S. T. Brown,  D. Casanova,  C.-M. Chang,  
 Y. Chen,  S. H. Chien,  K. D. Closser,  D. L. Crittenden,  M. Diedenhofen,  
 R. A. DiStasio Jr.,  H. Do,  A. D. Dutoi,  R. G. Edgar,  P.-T. Fang,  
 S. Fatehi,  Q. Feng,  L. Fusti-Molnar,  A. Ghysels,  
 A. Golubeva-Zadorozhnaya,  J. Gomes,  A. Gunina,  M. W. D. Hanson-Heine,  
 P. H. P. Harbach,  A. W. Hauser,  E. G. Hohenstein,  Z. C. Holden,  K. Hui,  
 T.-C. Jagau,  H. Ji,  B. Kaduk,  K. Khistyaev,  Jaehoon Kim,  Jihan Kim,  
 R. A. King,  P. Klunzinger,  D. Kosenkov,  T. Kowalczyk,  C. M. Krauter,  
 K. U. Lao,  A. Laurent,  K. V. Lawler,  S. Lehtola,  S. V. Levchenko,  
 C. Y. Lin,  Y.-S. Lin,  F. Liu,  E. Livshits,  R. C. Lochan,  A. Luenser,  
 P. Manohar,  S. F. Manzer,  S.-P. Mao,  N. Mardirossian,  A. V. Marenich,  
 L. A. Martinez-Martinez,  S. A. Maurer,  N. J. Mayhall,  K. Nanda,  
 C. M. Oana,  R. Olivares-Amaya,  D. P. O'Neill,  J. A. Parkhill,  
 T. M. Perrine,  R. Peverati,  P. A. Pieniazek,  F. Plasser,  A. Prociuk,  
 D. R. Rehn,  E. Rosta,  N. J. Russ,  N. Sergueev,  S. M. Sharada,  
 S. Sharma,  D. W. Small,  A. Sodt,  T. Stauch,  T. Stein,  D. Stuck,  
 Y.-C. Su,  A. J. W. Thom,  T. Tsuchimochi,  L. Vogt,  O. Vydrov,  T. Wang,  
 M. A. Watson,  J. Wenzel,  A. White,  C. F. Williams,  V. Vanovschi,  
 S. Yeganeh,  S. R. Yost,  Z.-Q. You,  I. Y. Zhang,  X. Zhang,  Y. Zhao,  
 B. R. Brooks,  G. K. L. Chan,  D. M. Chipman,  C. J. Cramer,  
 W. A. Goddard III,  M. S. Gordon,  W. J. Hehre,  A. Klamt,  
 H. F. Schaefer III,  M. W. Schmidt,  C. D. Sherrill,  D. G. Truhlar,  
 A. Warshel,  X. Xu,  A. Aspuru-Guzik,  R. Baer,  A. T. Bell,  N. A. Besley,  
 J.-D. Chai,  A. Dreuw,  B. D. Dunietz,  T. R. Furlani,  S. R. Gwaltney,  
 C.-P. Hsu,  Y. Jung,  J. Kong,  D. S. Lambrecht,  W. Liang,  C. Ochsenfeld,  
 V. A. Rassolov,  L. V. Slipchenko,  J. E. Subotnik,  T. Van Voorhis,  
 J. M. Herbert,  A. I. Krylov,  P. M. W. Gill,  M. Head-Gordon

 Contributors to earlier versions of Q-Chem not listed above: 
 R. D. Adamson,  J. Baker,  E. F. C. Byrd,  A. K. Chakraborty,  C.-L. Cheng,  
 H. Dachsel,  R. J. Doerksen,  G. Hawkins,  A. Heyden,  S. Hirata,  
 G. Kedziora,  F. J. Keil,  C. Kelley,  P. P. Korambath,  W. Kurlancheek,  
 A. M. Lee,  M. S. Lee,  D. Liotard,  I. Lotan,  P. E. Maslen,  N. Nair,  
 D. Neuhauser,  R. Olson,  B. Peters,  J. Ritchie,  N. E. Schultz,  
 N. Shenvi,  A. C. Simmonett,  K. S. Thanthiriwatte,  Q. Wu,  W. Zhang

 Please cite Q-Chem as follows:
 Y. Shao et al., Mol. Phys. 113, 184-215 (2015)
 DOI: 10.1080/00268976.2014.952696

 Q-Chem 4.3.0 for Intel X86 Linux

 Parts of Q-Chem use Armadillo 5.200.1 (Boston Tea Smuggler).
 http://arma.sourceforge.net/

 Q-Chem begins on Thu Mar 16 05:51:43 2017  

Host: 
0

     Scratch files written to /scratch/qchem/qchem2859//
 Nov1815 1189b_ 19540  19532 5443   
 Parallel job on  1  processors
Processing $rem in /mnt/software/qchem/config/preferences.
 MEM_TOTAL  2000 

Checking the input file for inconsistencies... 	...done.

--------------------------------------------------------------
User input:
--------------------------------------------------------------

$comment
job3 - cvs-adc(2) calculation
$end

$molecule
read
$end

$rem
mem_total 3000
mem_static 1500
sym_ignore true
scf_guess read
method cvs-adc(2)
basis 6-31G*
ee_singlets 20
cc_rest_occ 5                  !only excitations from the lowest N orbitals
unrestricted  true
max_scf_cycles 200
$end
--------------------------------------------------------------
 ----------------------------------------------------------------
             Standard Nuclear Orientation (Angstroms)
    I     Atom           X                Y                Z
 ----------------------------------------------------------------
    1      C      -0.5717820000     2.6842560000    -0.1265400000
    2      F       0.6828520000     2.5772170000    -0.0991590000
    3      F      -1.0510670000     3.4777750000     0.6908430000
    4      F      -1.4710290000     0.3277910000     0.8005770000
    5      F      -1.0368630000     2.8039680000    -1.3138560000
 ----------------------------------------------------------------
 Nuclear Repulsion Energy =   179.3519003455 hartrees
 There are       21 alpha and       21 beta electrons
 Requested basis set is 6-31G(d)
 There are 20 shells and 75 basis functions

 Total QAlloc Memory Limit   3000 MB
 Mega-Array Size      1467 MB
 MEM_STATIC part      1500 MB

                       Distance Matrix (Angstroms)
             C (  1)   F (  2)   F (  3)   F (  4)
   F (  2)  1.259489
   F (  3)  1.235921  2.107506
   F (  4)  2.687214  3.241704  3.179750
   F (  5)  1.280762  2.117622  2.114955  3.284932
 
 tim1(1): 
  0.000000000000000E+000
 tim1(2): 
  0.000000000000000E+000
 A cutoff of  1.0D-11 yielded    191 shell pairs
 There are      2918 function pairs
 
 -------------------------------------------------------
 OpenMP Integral Computing Module                       
 Release: version 1.0, May 2013, Q-Chem Inc. Pittsburgh 
 -------------------------------------------------------
 Integral Job Info:
 Integral job number is                      11
 Integral operator is                         1
 short-range coefficients                     0
 long-range coefficients              100000000
 Omega coefficients                           0
 if combine SR and LR in K                    0
 Integral screening is                        0
 Integral computing path is                   2
 max size of driver memory is            800000
 size of driver memory is                593474
 size of scratch memory is              2260544
 max col of scratch BK array               1296
 max len of scratch array in speh3          155
 max len of scratch index in speh4           18
 max int batch size is                      520
 min int batch size is                       52
 fixed nKL is                                52
 max L of basis functions is                  2
 order of int derivative is                   0
 number of shells is                         20
 number of basis is                          75
 number of cartesian basis is                75
 number of contracted shell pairs           191
 number of primitive shell pairs            961
 maxK2 (contraction) of shell pair           36
 max number of K2 of shell pair               1
 max number of CS2 of shell pair             32
 max number of PS2 of shell pair            192
 mem total for path MDJ                   18100
 -------------------------------------------------------
 Smallest overlap matrix eigenvalue = 3.35E-03

 Scale SEOQF with 1.000000e+00/1.000000e-01/1.000000e+00

 Standard Electronic Orientation quadrupole field applied
 Nucleus-field energy     =     0.0000000088 hartrees
 Guess MOs from SCF MO coefficient file
 Reading MOs from coefficient file
 Reading MOs from coefficient file
 An unrestricted Hartree-Fock SCF calculation will be
 performed using Pulay DIIS extrapolation
 SCF converges when DIIS error is below 1.0E-08
 using 8 threads for integral computing 
 ---------------------------------------
  Cycle       Energy         DIIS Error
 ---------------------------------------
    1    -435.3821357397      4.68E-06
    2    -435.3821358169      3.54E-06
    3    -435.3821358692      2.78E-06
    4    -435.3821359395      8.75E-07
    5    -435.3821359425      3.07E-07
    6    -435.3821359428      7.65E-08
    7    -435.3821359428      1.41E-08
    8    -435.3821359428      5.63E-09 Convergence criterion met
 ---------------------------------------
 <S^2> = 0.0000
 SCF time:  CPU 8.72 s  wall 2.07 s
 SCF   energy in the final basis set = -435.3821359428
 Total energy in the final basis set = -435.3821359428
================================================================================
|                                                                              |
|                                 A D C  M A N                                 |
|                                                                              |
 ------------------------------------------------------------------------------ 
|                                                                              |
| Components:                                                                  |
|                                                                              |
| - libvmm - 1.2-release                                                       |
|   Authors:                                                                   |
|   Evgeny Epifanovsky, Ilya Kaliman                                           |
|                                                                              |
| - libtensor - 2.4-trunk                                                      |
|   Authors:                                                                   |
|   Evgeny Epifanovsky, Michael Wormit, Dmitry Zuev, Sam Manzer                |
|                                                                              |
| - libwfa - 1.1-beta                                                          |
|   Authors:                                                                   |
|   Felix Plasser, Stefanie Baeppler, Benjamin Thomitzni, Michael Wormit       |
|                                                                              |
| - libadc - 1.0-beta                                                          |
|   Authors:                                                                   |
|   Michael Wormit, Philipp H. P. Harbach, Caroline Krauter, Dirk Rehn,        |
|   Matthias Schneider, Jan Wenzel                                             |
|                                                                              |
| - adcman - 2.4-beta                                                          |
|   Authors:                                                                   |
|   Michael Wormit, Philipp H. P. Harbach, Caroline Krauter, Dirk Rehn,        |
|   Jan Wenzel, Andreas Dreuw                                                  |
|                                                                              |
| Authors of earlier versions of ADCMAN:                                       |
| Andreas Dreuw, Jan Hendrik Starcke, Dirk Rehn, Michael Wormit                |
|                                                                              |
================================================================================

 
 Alpha MOs, Unrestricted
 -- Occupied --                  
-26.512 -26.503 -26.495 -26.115 -11.721  -1.916  -1.816  -1.795
  1 A     2 A     3 A     4 A     5 A     6 A     7 A     8 A                  
 -1.333  -1.095  -0.994  -0.990  -0.936  -0.841  -0.836  -0.810
  9 A    10 A    11 A    12 A    13 A    14 A    15 A    16 A                  
 -0.802  -0.785  -0.450  -0.450  -0.386
 17 A    18 A    19 A    20 A    21 A                                          
 -- Virtual --                   
 -0.040   0.310   0.356   0.372   0.598   0.610   0.630   0.664
 22 A    23 A    24 A    25 A    26 A    27 A    28 A    29 A                  
  1.211   1.220   1.227   1.284   1.286   1.315   1.503   1.510
 30 A    31 A    32 A    33 A    34 A    35 A    36 A    37 A                  
  1.516   1.519   1.527   1.530   1.639   1.641   1.657   1.850
 38 A    39 A    40 A    41 A    42 A    43 A    44 A    45 A                  
  1.859   1.863   1.971   1.978   2.000   2.051   2.059   2.070
 46 A    47 A    48 A    49 A    50 A    51 A    52 A    53 A                  
  2.203   2.209   2.227   2.287   2.317   2.317   2.348   2.349
 54 A    55 A    56 A    57 A    58 A    59 A    60 A    61 A                  
  2.402   2.710   2.756   2.791   3.059   3.078   3.331   3.346
 62 A    63 A    64 A    65 A    66 A    67 A    68 A    69 A                  
  3.388   4.035   4.494   4.632   4.689   4.990
 70 A    71 A    72 A    73 A    74 A    75 A                                  
 
 Beta MOs, Unrestricted
 -- Occupied --                  
-26.512 -26.503 -26.495 -26.115 -11.721  -1.916  -1.816  -1.795
  1 A     2 A     3 A     4 A     5 A     6 A     7 A     8 A                  
 -1.333  -1.095  -0.994  -0.990  -0.936  -0.841  -0.836  -0.810
  9 A    10 A    11 A    12 A    13 A    14 A    15 A    16 A                  
 -0.802  -0.785  -0.450  -0.450  -0.386
 17 A    18 A    19 A    20 A    21 A                                          
 -- Virtual --                   
 -0.040   0.310   0.356   0.372   0.598   0.610   0.630   0.664
 22 A    23 A    24 A    25 A    26 A    27 A    28 A    29 A                  
  1.211   1.220   1.227   1.284   1.286   1.315   1.503   1.510
 30 A    31 A    32 A    33 A    34 A    35 A    36 A    37 A                  
  1.516   1.519   1.527   1.530   1.639   1.641   1.657   1.850
 38 A    39 A    40 A    41 A    42 A    43 A    44 A    45 A                  
  1.859   1.863   1.971   1.978   2.000   2.051   2.059   2.070
 46 A    47 A    48 A    49 A    50 A    51 A    52 A    53 A                  
  2.203   2.209   2.227   2.287   2.317   2.317   2.348   2.349
 54 A    55 A    56 A    57 A    58 A    59 A    60 A    61 A                  
  2.402   2.710   2.756   2.791   3.059   3.078   3.331   3.346
 62 A    63 A    64 A    65 A    66 A    67 A    68 A    69 A                  
  3.388   4.035   4.494   4.632   4.689   4.990
 70 A    71 A    72 A    73 A    74 A    75 A                                  
 

--------------------------------------------------------------------------------
                                   HF Summary                                   
--------------------------------------------------------------------------------
  Energy:                                                 -435.3821359428 a.u.
  Dip. moment [a.u.]:                  [ -56.383160,  184.066099,    0.853541]
  Total dipole [Debye]:                                             489.311824
  <r^2> [a.u.]:                        [ 182.841228, 1014.751036,  110.885597]
  Total <r^2> [a.u.]:                                              1308.477862
--------------------------------------------------------------------------------

--------------------------------------------------------------------------------
                                 MP(2) Summary                                  
--------------------------------------------------------------------------------
  Energy contribution:                                      -0.8443040287 a.u.
  Total energy:                                           -436.2264399715 a.u.
  Dip. moment [a.u.]:                  [ -55.958916,  185.171122,    0.408514]
  Total dipole [Debye]:                                             491.681298
  <r^2> [a.u.]:                        [ 181.113347, 1020.087923,  110.207042]
  Total <r^2> [a.u.]:                                              1311.408312
--------------------------------------------------------------------------------
  Starting Davidson ... 
--------------------------------------------------------------------------------
   It NVec Conv  Avg. Norm  Max. Norm  Conv. states           Remark
--------------------------------------------------------------------------------
        20    0  2.059e-01  1.055e+00 10.9866 n n n n n n n n Guess.
    1   40    0  7.217e-02  9.030e-01 10.8141 n n n n n n n n 
    2   60    0  2.245e-02  3.283e-01 10.8119 n n n n n n n n 
    3   80    0  5.102e-03  5.480e-02 10.8119 n n n n n n n n 
    4  100    0  4.596e-03  6.051e-02 10.8119 n n n n n n n n 
    5   40    0  1.947e-03  2.622e-02 10.8119 n n n n n n n n Subspace collapsed.
    6   60    0  2.829e-03  4.405e-02 10.8119 n n n n n n n n 
    7   80    0  3.605e-03  5.270e-02 10.8119 n n n n n n n n 
    8  100    1  2.275e-03  3.613e-02 10.8119 y n n n n n n n 
    9   40    7  1.383e-03  2.275e-02 10.8119 y y n y y y y y Subspace collapsed.
   10   60    7  7.876e-04  1.237e-02 10.8119 y y n y y y y y 
   11   80    9  6.776e-04  1.023e-02 10.8119 y y y y y y y y 
   12  100   11  9.800e-04  1.538e-02 10.8119 y y y y y y y y 
   13   40   14  4.673e-04  6.964e-03 10.8119 y y y y y y y y Subspace collapsed.
   14   60   15  5.391e-04  8.183e-03 10.8119 y y y y y y y y 
   15   80   15  6.468e-04  1.102e-02 10.8119 y y y y y y y y 
   16  100   16  7.023e-04  1.156e-02 10.8119 y y y y y y y y 
   17   39   16  4.302e-04  6.871e-03 10.8119 y y y y y y y y Subspace collapsed.
   18   57   16  3.402e-04  5.005e-03 10.8119 y y y y y y y y 
   19   59   16  3.409e-04  4.986e-03 10.8119 y y y y y y y y 
   20   60   16  3.417e-04  4.990e-03 10.8119 y y y y y y y y 
   21   61   16  3.413e-04  4.980e-03 10.8119 y y y y y y y y 
   22   62   16  3.427e-04  4.984e-03 10.8119 y y y y y y y y 
   23   62   16  3.427e-04  4.984e-03 10.8119 y y y y y y y y 
   24   82   16  3.195e-04  5.092e-03 10.8119 y y y y y y y y 
   25   94   17  4.429e-04  7.493e-03 10.8119 y y y y y y y y 
   26  100   17  4.463e-04  7.412e-03 10.8119 y y y y y y y y 
   27   32   18  2.415e-04  3.854e-03 10.8119 y y y y y y y y Subspace collapsed.
   28   44   18  2.494e-04  3.827e-03 10.8119 y y y y y y y y 
   29   56   18  2.698e-04  4.241e-03 10.8119 y y y y y y y y 
   30   67   18  3.049e-04  4.928e-03 10.8119 y y y y y y y y 
   31   78   18  4.096e-04  5.970e-03 10.8119 y y y y y y y y 
   32   88   18  2.464e-04  3.649e-03 10.8119 y y y y y y y y 
   33   88   18  2.464e-04  3.649e-03 10.8119 y y y y y y y y 
   34   94   18  2.424e-04  3.569e-03 10.8119 y y y y y y y y 
   35   94   18  2.424e-04  3.569e-03 10.8119 y y y y y y y y 
   36   95   18  2.422e-04  3.566e-03 10.8119 y y y y y y y y 
   37   95   18  2.422e-04  3.566e-03 10.8119 y y y y y y y y 
   38   96   18  2.405e-04  3.519e-03 10.8119 y y y y y y y y 
   39   96   18  2.405e-04  3.519e-03 10.8119 y y y y y y y y 
   40   96   18  2.405e-04  3.519e-03 10.8119 y y y y y y y y 
   41  100   18  2.357e-04  3.372e-03 10.8119 y y y y y y y y 
   42   28   18  1.340e-04  2.033e-03 10.8119 y y y y y y y y Subspace collapsed.
   43   28   18  1.340e-04  2.033e-03 10.8119 y y y y y y y y 
   44   31   18  1.336e-04  2.027e-03 10.8119 y y y y y y y y 
   45   39   18  7.177e-05  1.156e-03 10.8119 y y y y y y y y 
   46   46   18  6.418e-05  1.116e-03 10.8119 y y y y y y y y 
   47   53   18  5.971e-05  1.064e-03 10.8119 y y y y y y y y 
   48   53   18  5.971e-05  1.064e-03 10.8119 y y y y y y y y 
   49   55   18  6.015e-05  1.074e-03 10.8119 y y y y y y y y 
   50   55   18  6.015e-05  1.074e-03 10.8119 y y y y y y y y 
   51   56   18  5.967e-05  1.063e-03 10.8119 y y y y y y y y 
   52   56   18  5.967e-05  1.063e-03 10.8119 y y y y y y y y 
   53   56   18  5.967e-05  1.063e-03 10.8119 y y y y y y y y 
   54   76   18  6.466e-05  1.192e-03 10.8119 y y y y y y y y 
   55   76   18  6.466e-05  1.192e-03 10.8119 y y y y y y y y 
   56   76   18  6.466e-05  1.192e-03 10.8119 y y y y y y y y 
   57   77   18  6.467e-05  1.192e-03 10.8119 y y y y y y y y 
   58   77   18  6.467e-05  1.192e-03 10.8119 y y y y y y y y 
   59   77   18  6.467e-05  1.192e-03 10.8119 y y y y y y y y 
--------------------------------------------------------------------------------
  Davidson Summary: 
 ------------------------------------------------------------
  State  0: excitation energy =  10.8119 a.u.   (converged)
  State  1: excitation energy =  10.8811 a.u.   (converged)
  State  2: excitation energy =  11.1317 a.u.   (converged)
  State  3: excitation energy =  11.1542 a.u.   (converged)
  State  4: excitation energy =  11.1769 a.u.   (converged)
  State  5: excitation energy =  11.2079 a.u.   (converged)
  State  6: excitation energy =  11.2285 a.u.   (converged)
  State  7: excitation energy =  11.2489 a.u.   (converged)
  State  8: excitation energy =  11.5103 a.u.   (converged)
  State  9: excitation energy =  11.5380 a.u.   (converged)
  State 10: excitation energy =  11.5406 a.u.   (converged)
  State 11: excitation energy =  11.5423 a.u.   (converged)
  State 12: excitation energy =  11.5558 a.u.   (converged)
  State 13: excitation energy =  11.5601 a.u.   (converged)
  State 14: excitation energy =  11.5755 a.u.   (converged)
  State 15: excitation energy =  11.6167 a.u.   (converged)
  State 16: excitation energy =  12.0387 a.u.   (converged)
  State 17: excitation energy =  12.0414 a.u.   (converged)
  State 18: excitation energy =  12.1810 a.u.   (not converged)
  State 19: excitation energy =  12.1861 a.u.   (not converged)
 ------------------------------------------------------------


--------------------------------------------------------------------------------
                             Excited State Summary
--------------------------------------------------------------------------------

  Excited state  1 (A)                                             [converged]
  ----------------------------------------------------------------------------
  Term symbol:  2 (-) A                                     R^2 =  1.34958e-12

  Total energy:                                           -425.4145772310 a.u.
  Excitation energy:                                             294.205748 eV

  Osc. strength:                                                      0.000000
  Trans. dip. moment [a.u.]:           [  -0.000000,   -0.000000,    0.000000]
  <i|r^2|0> [a.u.]:                    [   0.000000,   -0.000000,   -0.000000]

  V1^2 = 0.9490, V2^2 = 0.0510

  Important amplitudes:
     core i     occ j      vir a      vir b          v   
    ------------------------------------------------------
     5 (A) B              22 (A) B                -0.6542
     5 (A) A              22 (A) A                 0.6542
    ------------------------------------------------------
  ----------------------------------------------------------------------------


  Excited state  2 (A)                                             [converged]
  ----------------------------------------------------------------------------
  Term symbol:  3 (-) A                                     R^2 =  2.42623e-13

  Total energy:                                           -425.3453760288 a.u.
  Excitation energy:                                             296.088808 eV

  Osc. strength:                                                      0.080526
  Trans. dip. moment [a.u.]:           [   0.034695,    0.094399,   -0.031399]
  <i|r^2|0> [a.u.]:                    [  -0.083583,    0.948162,    0.006519]

  V1^2 = 0.9406, V2^2 = 0.0594

  Important amplitudes:
     core i     occ j      vir a      vir b          v   
    ------------------------------------------------------
     5 (A) A              22 (A) A                 0.6626
     5 (A) B              22 (A) B                 0.6626
    ------------------------------------------------------
  ----------------------------------------------------------------------------


  Excited state  3 (A)                                             [converged]
  ----------------------------------------------------------------------------
  Term symbol:  4 (-) A                                     R^2 =  1.56405e-13

  Total energy:                                           -425.0947782612 a.u.
  Excitation energy:                                             302.907920 eV

  Osc. strength:                                                      0.000000
  Trans. dip. moment [a.u.]:           [  -0.000000,    0.000000,   -0.000000]
  <i|r^2|0> [a.u.]:                    [   0.000000,    0.000000,    0.000000]

  V1^2 = 0.9454, V2^2 = 0.0546

  Important amplitudes:
     core i     occ j      vir a      vir b          v   
    ------------------------------------------------------
     5 (A) B              24 (A) B                -0.4826
     5 (A) A              24 (A) A                 0.4826
    ------------------------------------------------------
  ----------------------------------------------------------------------------


  Excited state  4 (A)                                             [converged]
  ----------------------------------------------------------------------------
  Term symbol:  5 (-) A                                     R^2 =  4.91266e-13

  Total energy:                                           -425.0722594520 a.u.
  Excitation energy:                                             303.520688 eV

  Osc. strength:                                                      0.000000
  Trans. dip. moment [a.u.]:           [   0.000000,    0.000000,   -0.000000]
  <i|r^2|0> [a.u.]:                    [  -0.000000,    0.000000,    0.000000]

  V1^2 = 0.9375, V2^2 = 0.0625

  Important amplitudes:
     core i     occ j      vir a      vir b          v   
    ------------------------------------------------------
     5 (A) B              23 (A) B                 0.3962
     5 (A) A              23 (A) A                -0.3962
    ------------------------------------------------------
  ----------------------------------------------------------------------------


  Excited state  5 (A)                                             [converged]
  ----------------------------------------------------------------------------
  Term symbol:  6 (-) A                                     R^2 =  2.93156e-13

  Total energy:                                           -425.0494918153 a.u.
  Excitation energy:                                             304.140227 eV

  Osc. strength:                                                      0.000000
  Trans. dip. moment [a.u.]:           [   0.000000,   -0.000000,    0.000000]
  <i|r^2|0> [a.u.]:                    [  -0.000000,   -0.000000,   -0.000000]

  V1^2 = 0.9385, V2^2 = 0.0615

  Important amplitudes:
     core i     occ j      vir a      vir b          v   
    ------------------------------------------------------
     5 (A) B              25 (A) B                 0.4357
     5 (A) A              25 (A) A                -0.4357
    ------------------------------------------------------
  ----------------------------------------------------------------------------


  Excited state  6 (A)                                             [converged]
  ----------------------------------------------------------------------------
  Term symbol:  7 (-) A                                     R^2 =  2.13899e-13

  Total energy:                                           -425.0185087963 a.u.
  Excitation energy:                                             304.983318 eV

  Osc. strength:                                                      0.100021
  Trans. dip. moment [a.u.]:           [   0.058011,   -0.014461,    0.099055]
  <i|r^2|0> [a.u.]:                    [  -0.137421,   -0.158620,   -0.049617]

  V1^2 = 0.9349, V2^2 = 0.0651

  Important amplitudes:
     core i     occ j      vir a      vir b          v   
    ------------------------------------------------------
     5 (A) A              24 (A) A                 0.5105
     5 (A) B              24 (A) B                 0.5105
    ------------------------------------------------------
  ----------------------------------------------------------------------------


  Excited state  7 (A)                                             [converged]
  ----------------------------------------------------------------------------
  Term symbol:  8 (-) A                                     R^2 =  2.47414e-13

  Total energy:                                           -424.9979877807 a.u.
  Excitation energy:                                             305.541723 eV

  Osc. strength:                                                      0.064295
  Trans. dip. moment [a.u.]:           [  -0.091257,   -0.006413,    0.014837]
  <i|r^2|0> [a.u.]:                    [   0.189682,   -0.085093,   -0.023388]

  V1^2 = 0.9223, V2^2 = 0.0777

  Important amplitudes:
     core i     occ j      vir a      vir b          v   
    ------------------------------------------------------
     5 (A) A              23 (A) A                -0.4541
     5 (A) B              23 (A) B                -0.4541
    ------------------------------------------------------
  ----------------------------------------------------------------------------


  Excited state  8 (A)                                             [converged]
  ----------------------------------------------------------------------------
  Term symbol:  9 (-) A                                     R^2 =  2.20584e-13

  Total energy:                                           -424.9775781340 a.u.
  Excitation energy:                                             306.097098 eV

  Osc. strength:                                                      0.085012
  Trans. dip. moment [a.u.]:           [  -0.046852,    0.070119,    0.064995]
  <i|r^2|0> [a.u.]:                    [   0.113621,    0.720541,   -0.023132]

  V1^2 = 0.9285, V2^2 = 0.0715

  Important amplitudes:
     core i     occ j      vir a      vir b          v   
    ------------------------------------------------------
     5 (A) A              25 (A) A                -0.5030
     5 (A) B              25 (A) B                -0.5030
    ------------------------------------------------------
  ----------------------------------------------------------------------------


  Excited state  9 (A)                                             [converged]
  ----------------------------------------------------------------------------
  Term symbol:  10 (-) A                                    R^2 =  2.80630e-13

  Total energy:                                           -424.7161439139 a.u.
  Excitation energy:                                             313.211085 eV

  Osc. strength:                                                      0.000000
  Trans. dip. moment [a.u.]:           [  -0.000000,   -0.000000,    0.000000]
  <i|r^2|0> [a.u.]:                    [   0.000000,   -0.000000,   -0.000000]

  V1^2 = 0.8837, V2^2 = 0.1163

  Important amplitudes:
     core i     occ j      vir a      vir b          v   
    ------------------------------------------------------
     5 (A) B              26 (A) B                -0.4680
     5 (A) A              26 (A) A                 0.4680
    ------------------------------------------------------
  ----------------------------------------------------------------------------


  Excited state 10 (A)                                             [converged]
  ----------------------------------------------------------------------------
  Term symbol:  11 (-) A                                    R^2 =  2.40733e-13

  Total energy:                                           -424.6884156019 a.u.
  Excitation energy:                                             313.965611 eV

  Osc. strength:                                                      0.000000
  Trans. dip. moment [a.u.]:           [   0.000000,   -0.000000,    0.000000]
  <i|r^2|0> [a.u.]:                    [  -0.000000,   -0.000000,   -0.000000]

  V1^2 = 0.8776, V2^2 = 0.1224

  Important amplitudes:
     core i     occ j      vir a      vir b          v   
    ------------------------------------------------------
     5 (A) B              27 (A) B                -0.4703
     5 (A) A              27 (A) A                 0.4703
    ------------------------------------------------------
  ----------------------------------------------------------------------------


  Excited state 11 (A)                                             [converged]
  ----------------------------------------------------------------------------
  Term symbol:  12 (-) A                                    R^2 =  2.97745e-13

  Total energy:                                           -424.6858408113 a.u.
  Excitation energy:                                             314.035674 eV

  Osc. strength:                                                      0.000000
  Trans. dip. moment [a.u.]:           [  -0.000000,    0.000000,    0.000000]
  <i|r^2|0> [a.u.]:                    [   0.000000,    0.000000,   -0.000000]

  V1^2 = 0.8782, V2^2 = 0.1218

  Important amplitudes:
     core i     occ j      vir a      vir b          v   
    ------------------------------------------------------
     5 (A) B              28 (A) B                -0.5024
     5 (A) A              28 (A) A                 0.5024
    ------------------------------------------------------
  ----------------------------------------------------------------------------


  Excited state 12 (A)                                             [converged]
  ----------------------------------------------------------------------------
  Term symbol:  13 (-) A                                    R^2 =  4.92860e-13

  Total energy:                                           -424.6841534914 a.u.
  Excitation energy:                                             314.081588 eV

  Osc. strength:                                                      0.021546
  Trans. dip. moment [a.u.]:           [   0.018241,    0.049031,   -0.007950]
  <i|r^2|0> [a.u.]:                    [  -0.024765,    0.512758,    0.018583]

  V1^2 = 0.8846, V2^2 = 0.1154

  Important amplitudes:
     core i     occ j      vir a      vir b          v   
    ------------------------------------------------------
     5 (A) A              26 (A) A                 0.5122
     5 (A) B              26 (A) B                 0.5122
    ------------------------------------------------------
  ----------------------------------------------------------------------------


  Excited state 13 (A)                                             [converged]
  ----------------------------------------------------------------------------
  Term symbol:  14 (-) A                                    R^2 =  5.04014e-13

  Total energy:                                           -424.6706176801 a.u.
  Excitation energy:                                             314.449917 eV

  Osc. strength:                                                      0.033778
  Trans. dip. moment [a.u.]:           [  -0.046906,    0.002934,   -0.046645]
  <i|r^2|0> [a.u.]:                    [   0.103408,    0.031067,    0.022576]

  V1^2 = 0.8813, V2^2 = 0.1187

  Important amplitudes:
     core i     occ j      vir a      vir b          v   
    ------------------------------------------------------
     5 (A) A              27 (A) A                 0.4954
     5 (A) B              27 (A) B                 0.4954
    ------------------------------------------------------
  ----------------------------------------------------------------------------


  Excited state 14 (A)                                             [converged]
  ----------------------------------------------------------------------------
  Term symbol:  15 (-) A                                    R^2 =  9.45092e-13

  Total energy:                                           -424.6663042306 a.u.
  Excitation energy:                                             314.567292 eV

  Osc. strength:                                                      0.037630
  Trans. dip. moment [a.u.]:           [  -0.043288,    0.032564,    0.044141]
  <i|r^2|0> [a.u.]:                    [   0.093324,    0.329392,   -0.023235]

  V1^2 = 0.8827, V2^2 = 0.1173

  Important amplitudes:
     core i     occ j      vir a      vir b          v   
    ------------------------------------------------------
     5 (A) A              28 (A) A                -0.5455
     5 (A) B              28 (A) B                -0.5455
    ------------------------------------------------------
  ----------------------------------------------------------------------------


  Excited state 15 (A)                                             [converged]
  ----------------------------------------------------------------------------
  Term symbol:  16 (-) A                                    R^2 =  2.78057e-12

  Total energy:                                           -424.6509473020 a.u.
  Excitation energy:                                             314.985175 eV

  Osc. strength:                                                      0.000000
  Trans. dip. moment [a.u.]:           [   0.000000,    0.000000,    0.000000]
  <i|r^2|0> [a.u.]:                    [  -0.000000,    0.000000,   -0.000000]

  V1^2 = 0.8656, V2^2 = 0.1344

  Important amplitudes:
     core i     occ j      vir a      vir b          v   
    ------------------------------------------------------
     5 (A) B              29 (A) B                 0.6067
     5 (A) A              29 (A) A                -0.6067
    ------------------------------------------------------
  ----------------------------------------------------------------------------


  Excited state 16 (A)                                             [converged]
  ----------------------------------------------------------------------------
  Term symbol:  17 (-) A                                    R^2 =  9.90246e-12

  Total energy:                                           -424.6097510243 a.u.
  Excitation energy:                                             316.106183 eV

  Osc. strength:                                                      0.020813
  Trans. dip. moment [a.u.]:           [  -0.017924,   -0.044302,    0.020087]
  <i|r^2|0> [a.u.]:                    [   0.058001,   -0.431341,    0.009754]

  V1^2 = 0.8695, V2^2 = 0.1305

  Important amplitudes:
     core i     occ j      vir a      vir b          v   
    ------------------------------------------------------
     5 (A) A              29 (A) A                -0.6427
     5 (A) B              29 (A) B                -0.6427
    ------------------------------------------------------
  ----------------------------------------------------------------------------


  Excited state 17 (A)                                             [converged]
  ----------------------------------------------------------------------------
  Term symbol:  18 (-) A                                    R^2 =  1.70869e-09

  Total energy:                                           -424.1876954460 a.u.
  Excitation energy:                                             327.590899 eV

  Osc. strength:                                                      0.000000
  Trans. dip. moment [a.u.]:           [   0.000000,    0.000000,   -0.000000]
  <i|r^2|0> [a.u.]:                    [  -0.000000,    0.000000,    0.000000]

  V1^2 = 0.0313, V2^2 = 0.9687

  Important amplitudes:
     core i     occ j      vir a      vir b          v   
    ------------------------------------------------------
     5 (A) B   21 (A) A   22 (A) A   22 (A) B      0.4900
     5 (A) A   21 (A) B   22 (A) A   22 (A) B      0.4900
    ------------------------------------------------------
  ----------------------------------------------------------------------------


  Excited state 18 (A)                                             [converged]
  ----------------------------------------------------------------------------
  Term symbol:  19 (-) A                                    R^2 =  1.31902e-09

  Total energy:                                           -424.1850758157 a.u.
  Excitation energy:                                             327.662183 eV

  Osc. strength:                                                      0.000612
  Trans. dip. moment [a.u.]:           [  -0.002894,   -0.007738,    0.002833]
  <i|r^2|0> [a.u.]:                    [   0.009278,   -0.076441,    0.001773]

  V1^2 = 0.0347, V2^2 = 0.9653

  Important amplitudes:
     core i     occ j      vir a      vir b          v   
    ------------------------------------------------------
     5 (A) A   21 (A) B   22 (A) A   22 (A) B      0.4889
     5 (A) B   21 (A) A   22 (A) A   22 (A) B     -0.4889
    ------------------------------------------------------
  ----------------------------------------------------------------------------


  Excited state 19 (A)                                         [not converged]
  ----------------------------------------------------------------------------
  Term symbol:  20 (-) A                                    R^2 =  1.19193e-03

  Total energy:                                           -424.0454528684 a.u.
  Excitation energy:                                             331.461516 eV


  V1^2 = 0.8545, V2^2 = 0.1455

  Important amplitudes:
     core i     occ j      vir a      vir b          v   
    ------------------------------------------------------
     5 (A) A              30 (A) A                -0.5834
     5 (A) B              30 (A) B                 0.5833
    ------------------------------------------------------
  ----------------------------------------------------------------------------


  Excited state 20 (A)                                         [not converged]
  ----------------------------------------------------------------------------
  Term symbol:  21 (-) A                                    R^2 =  5.02118e-04

  Total energy:                                           -424.0403736546 a.u.
  Excitation energy:                                             331.599729 eV


  V1^2 = 0.8538, V2^2 = 0.1462

  Important amplitudes:
     core i     occ j      vir a      vir b          v   
    ------------------------------------------------------
     5 (A) A              30 (A) A                 0.5821
     5 (A) B              30 (A) B                 0.5819
    ------------------------------------------------------
  ----------------------------------------------------------------------------


--------------------------------------------------------------------------------
  Time of ADC calculation:  CPU 3461.12 s  wall 2143.31 s
================================================================================
 
 --------------------------------------------------------------
 
                    Orbital Energies (a.u.)
 --------------------------------------------------------------
 
 Alpha MOs
 -- Occupied --
-26.512 -26.503 -26.495 -26.115 -11.721  -1.916  -1.816  -1.795
 -1.333  -1.095  -0.994  -0.990  -0.936  -0.841  -0.836  -0.810
 -0.802  -0.785  -0.450  -0.450  -0.386
 -- Virtual --
 -0.040   0.310   0.356   0.372   0.598   0.610   0.630   0.664
  1.211   1.220   1.227   1.284   1.286   1.315   1.503   1.510
  1.516   1.519   1.527   1.530   1.639   1.641   1.657   1.850
  1.859   1.863   1.971   1.978   2.000   2.051   2.059   2.070
  2.203   2.209   2.227   2.287   2.317   2.317   2.348   2.349
  2.402   2.710   2.756   2.791   3.059   3.078   3.331   3.346
  3.388   4.035   4.494   4.632   4.689   4.990
 
 Beta MOs
 -- Occupied --
-26.512 -26.503 -26.495 -26.115 -11.721  -1.916  -1.816  -1.795
 -1.333  -1.095  -0.994  -0.990  -0.936  -0.841  -0.836  -0.810
 -0.802  -0.785  -0.450  -0.450  -0.386
 -- Virtual --
 -0.040   0.310   0.356   0.372   0.598   0.610   0.630   0.664
  1.211   1.220   1.227   1.284   1.286   1.315   1.503   1.510
  1.516   1.519   1.527   1.530   1.639   1.641   1.657   1.850
  1.859   1.863   1.971   1.978   2.000   2.051   2.059   2.070
  2.203   2.209   2.227   2.287   2.317   2.317   2.348   2.349
  2.402   2.710   2.756   2.791   3.059   3.078   3.331   3.346
  3.388   4.035   4.494   4.632   4.689   4.990
 --------------------------------------------------------------
 
          Ground-State Mulliken Net Atomic Charges

     Atom                 Charge (a.u.)    Spin (a.u.)
  --------------------------------------------------------
      1 C                     1.127746       0.000000
      2 F                    -0.176314       0.000000
      3 F                    -0.147518       0.000000
      4 F                    -0.604061       0.000000
      5 F                    -0.199852       0.000000
  --------------------------------------------------------
  Sum of atomic charges =     0.000000
  Sum of spin   charges =     0.000000

 -----------------------------------------------------------------
                    Cartesian Multipole Moments
 -----------------------------------------------------------------
    Charge (ESU x 10^10)
                 0.0000
    Dipole Moment (Debye)
         X       2.5026      Y       6.6414      Z      -2.4269
       Tot       7.5008
    Quadrupole Moments (Debye-Ang)
        XX     -28.5733     XY      -2.8001     YY      -2.7282
        XZ       3.2460     YZ      -1.3977     ZZ     -25.2981
    Octopole Moments (Debye-Ang^2)
       XXX      58.9098    XXY     -53.8624    XYY       5.4484
       YYY    -103.6938    XXZ      -4.9811    XYZ       1.3004
       YYZ      -2.0231    XZZ      19.3756    YZZ     -54.8198
       ZZZ      -2.4291
    Hexadecapole Moments (Debye-Ang^3)
      XXXX    -174.0289   XXXY      96.5082   XXYY    -175.9164
      XYYY      62.4945   YYYY    -764.5486   XXXZ      16.4909
      XXYZ       5.4139   XYYZ       2.9111   YYYZ      17.1090
      XXZZ     -46.1512   XYZZ      32.3456   YYZZ    -170.4843
      XZZZ      12.0624   YZZZ      21.1530   ZZZZ     -93.5239
 -----------------------------------------------------------------
Archival summary:
1\1\tp-linux1\SP\HF\6-31G*\41\thomas\ThuMar1606:27:302017ThuMar1606:27:302017\0\\#,HF,6-31G*,\\0,1\C\F,1,1.23592\F,1,1.25949,2,115.245\F,1,1.28076,2,114.348,3,133.348,0\F,1,2.68721,2,101.834,3,-112.501,0\\HF=-435.382136\\@

 Total job time:  2147.44s(wall), 3473.46s(cpu) 
 Thu Mar 16 06:27:30 2017

        *************************************************************
        *                                                           *
        *  Thank you very much for using Q-Chem.  Have a nice day.  *
        *                                                           *
        *************************************************************


0 sent ACK to 0 
now end server 0 ... 
cleanup process ... done
