
Running Job 1 of 2 ddtraj2t27.inp
qchem ddtraj2t27.inp_9145.0 /scratch/qchem/qchem9145/ 1
/mnt/software/qchem/bin/mpi/mpirun_qchem -machinefile /mnt/software/qchem/bin/mpi/machines -np 1 /mnt/software/qchem/exe/qcprog.exe ddtraj2t27.inp_9145.0 /scratch/qchem/qchem9145/

Process 0 of 1 is on tp-linux1 - thread support 0
initial socket setup ...start
initial socket setup ...done 
now start server 0 ... 

cmd = ssh tp-linux1 /mnt/software/qchem/bin/get_hostid 1244204036 > /scratch/qchem/qchem9145/lic.dat
                  Welcome to Q-Chem
     A Quantum Leap Into The Future Of Chemistry


 Q-Chem 4.3, Q-Chem, Inc., Pleasanton, CA (2015)

 Y. Shao,  Z. Gan,  E. Epifanovsky,  A. T. B. Gilbert,  M. Wormit,  
 J. Kussmann,  A. W. Lange,  A. Behn,  J. Deng,  X. Feng,  D. Ghosh,  
 M. Goldey,  P. R. Horn,  L. D. Jacobson,  I. Kaliman,  R. Z. Khaliullin,  
 T. Kus,  A. Landau,  J. Liu,  E. I. Proynov,  Y. M. Rhee,  R. M. Richard,  
 M. A. Rohrdanz,  R. P. Steele,  E. J. Sundstrom,  H. L. Woodcock III,  
 P. M. Zimmerman,  D. Zuev,  B. Albrecht,  E. Alguire,  B. Austin,  
 S. A. Baeppler,  G. J. O. Beran,  Y. A. Bernard,  E. Berquist,  
 K. Brandhorst,  K. B. Bravaya,  S. T. Brown,  D. Casanova,  C.-M. Chang,  
 Y. Chen,  S. H. Chien,  K. D. Closser,  D. L. Crittenden,  M. Diedenhofen,  
 R. A. DiStasio Jr.,  H. Do,  A. D. Dutoi,  R. G. Edgar,  P.-T. Fang,  
 S. Fatehi,  Q. Feng,  L. Fusti-Molnar,  A. Ghysels,  
 A. Golubeva-Zadorozhnaya,  J. Gomes,  A. Gunina,  M. W. D. Hanson-Heine,  
 P. H. P. Harbach,  A. W. Hauser,  E. G. Hohenstein,  Z. C. Holden,  K. Hui,  
 T.-C. Jagau,  H. Ji,  B. Kaduk,  K. Khistyaev,  Jaehoon Kim,  Jihan Kim,  
 R. A. King,  P. Klunzinger,  D. Kosenkov,  T. Kowalczyk,  C. M. Krauter,  
 K. U. Lao,  A. Laurent,  K. V. Lawler,  S. Lehtola,  S. V. Levchenko,  
 C. Y. Lin,  Y.-S. Lin,  F. Liu,  E. Livshits,  R. C. Lochan,  A. Luenser,  
 P. Manohar,  S. F. Manzer,  S.-P. Mao,  N. Mardirossian,  A. V. Marenich,  
 L. A. Martinez-Martinez,  S. A. Maurer,  N. J. Mayhall,  K. Nanda,  
 C. M. Oana,  R. Olivares-Amaya,  D. P. O'Neill,  J. A. Parkhill,  
 T. M. Perrine,  R. Peverati,  P. A. Pieniazek,  F. Plasser,  A. Prociuk,  
 D. R. Rehn,  E. Rosta,  N. J. Russ,  N. Sergueev,  S. M. Sharada,  
 S. Sharma,  D. W. Small,  A. Sodt,  T. Stauch,  T. Stein,  D. Stuck,  
 Y.-C. Su,  A. J. W. Thom,  T. Tsuchimochi,  L. Vogt,  O. Vydrov,  T. Wang,  
 M. A. Watson,  J. Wenzel,  A. White,  C. F. Williams,  V. Vanovschi,  
 S. Yeganeh,  S. R. Yost,  Z.-Q. You,  I. Y. Zhang,  X. Zhang,  Y. Zhao,  
 B. R. Brooks,  G. K. L. Chan,  D. M. Chipman,  C. J. Cramer,  
 W. A. Goddard III,  M. S. Gordon,  W. J. Hehre,  A. Klamt,  
 H. F. Schaefer III,  M. W. Schmidt,  C. D. Sherrill,  D. G. Truhlar,  
 A. Warshel,  X. Xu,  A. Aspuru-Guzik,  R. Baer,  A. T. Bell,  N. A. Besley,  
 J.-D. Chai,  A. Dreuw,  B. D. Dunietz,  T. R. Furlani,  S. R. Gwaltney,  
 C.-P. Hsu,  Y. Jung,  J. Kong,  D. S. Lambrecht,  W. Liang,  C. Ochsenfeld,  
 V. A. Rassolov,  L. V. Slipchenko,  J. E. Subotnik,  T. Van Voorhis,  
 J. M. Herbert,  A. I. Krylov,  P. M. W. Gill,  M. Head-Gordon

 Contributors to earlier versions of Q-Chem not listed above: 
 R. D. Adamson,  J. Baker,  E. F. C. Byrd,  A. K. Chakraborty,  C.-L. Cheng,  
 H. Dachsel,  R. J. Doerksen,  G. Hawkins,  A. Heyden,  S. Hirata,  
 G. Kedziora,  F. J. Keil,  C. Kelley,  P. P. Korambath,  W. Kurlancheek,  
 A. M. Lee,  M. S. Lee,  D. Liotard,  I. Lotan,  P. E. Maslen,  N. Nair,  
 D. Neuhauser,  R. Olson,  B. Peters,  J. Ritchie,  N. E. Schultz,  
 N. Shenvi,  A. C. Simmonett,  K. S. Thanthiriwatte,  Q. Wu,  W. Zhang

 Please cite Q-Chem as follows:
 Y. Shao et al., Mol. Phys. 113, 184-215 (2015)
 DOI: 10.1080/00268976.2014.952696

 Q-Chem 4.3.0 for Intel X86 Linux

 Parts of Q-Chem use Armadillo 5.200.1 (Boston Tea Smuggler).
 http://arma.sourceforge.net/

 Q-Chem begins on Fri Mar 17 06:57:27 2017  

Host: 
0

     Scratch files written to /scratch/qchem/qchem9145//
 Nov1815 1189b_ 19540  19532 5443   
 Parallel job on  1  processors
Processing $rem in /mnt/software/qchem/config/preferences.
 MEM_TOTAL  2000 

Checking the input file for inconsistencies... 	...done.

--------------------------------------------------------------
User input:
--------------------------------------------------------------
$comment
XAS calculation for the 2b valence excited for water using cvs-adc(2)-x + 6-311+G* basis set
job 1 - determination of HF orbitals
$end

$molecule
0 1
6  -0.510494  2.97669  -0.192063
9  0.547167  2.413288  -0.018741
9  -1.112806  3.375806  0.72387
9  -1.283678  0.567622  0.643968
9  -1.113631  2.669906  -1.211779
$end

$rem
jobtype      sp
sym_ignore true
exchange     hf
basis        6-31G*
unrestricted true
$end

--------------------------------------------------------------
 ----------------------------------------------------------------
             Standard Nuclear Orientation (Angstroms)
    I     Atom           X                Y                Z
 ----------------------------------------------------------------
    1      C      -0.5104940000     2.9766900000    -0.1920630000
    2      F       0.5471670000     2.4132880000    -0.0187410000
    3      F      -1.1128060000     3.3758060000     0.7238700000
    4      F      -1.2836780000     0.5676220000     0.6439680000
    5      F      -1.1136310000     2.6699060000    -1.2117790000
 ----------------------------------------------------------------
 Nuclear Repulsion Energy =   191.0660761356 hartrees
 There are       21 alpha and       21 beta electrons
 Requested basis set is 6-31G(d)
 There are 20 shells and 75 basis functions

 Total QAlloc Memory Limit   2000 MB
 Mega-Array Size        61 MB
 MEM_STATIC part        62 MB

                       Distance Matrix (Angstroms)
             C (  1)   F (  2)   F (  3)   F (  4)
   F (  2)  1.210830
   F (  3)  1.166622  2.057528
   F (  4)  2.664652  2.682845  2.814512
   F (  5)  1.223810  2.060932  2.060348  2.809326
 
 tim1(1): 
  0.000000000000000E+000
 tim1(2): 
  0.000000000000000E+000
 A cutoff of  1.0D-08 yielded    192 shell pairs
 There are      2926 function pairs
 
 -------------------------------------------------------
 OpenMP Integral Computing Module                       
 Release: version 1.0, May 2013, Q-Chem Inc. Pittsburgh 
 -------------------------------------------------------
 Integral Job Info:
 Integral job number is                      11
 Integral operator is                         1
 short-range coefficients                     0
 long-range coefficients              100000000
 Omega coefficients                           0
 if combine SR and LR in K                    0
 Integral screening is                        0
 Integral computing path is                   2
 max size of driver memory is            800000
 size of driver memory is                593474
 size of scratch memory is              2260544
 max col of scratch BK array               1296
 max len of scratch array in speh3          155
 max len of scratch index in speh4           18
 max int batch size is                      520
 min int batch size is                       52
 fixed nKL is                                52
 max L of basis functions is                  2
 order of int derivative is                   0
 number of shells is                         20
 number of basis is                          75
 number of cartesian basis is                75
 number of contracted shell pairs           192
 number of primitive shell pairs            926
 maxK2 (contraction) of shell pair           36
 max number of K2 of shell pair               1
 max number of CS2 of shell pair             26
 max number of PS2 of shell pair            180
 mem total for path MDJ                   19336
 -------------------------------------------------------
 Smallest overlap matrix eigenvalue = 2.44E-03

 Scale SEOQF with 1.000000e+00/1.000000e-01/1.000000e+00

 Standard Electronic Orientation quadrupole field applied
 Nucleus-field energy     =     0.0000000110 hartrees
 Guess from superposition of atomic densities
 Warning:  Energy on first SCF cycle will be non-variational
 An unrestricted Hartree-Fock SCF calculation will be
 performed using Pulay DIIS extrapolation
 SCF converges when DIIS error is below 1.0E-05
 using 8 threads for integral computing 
 ---------------------------------------
  Cycle       Energy         DIIS Error
 ---------------------------------------
    1    -436.5858144176      9.69E-02
    2    -435.1169623646      2.13E-02
    3    -433.8079909026      4.05E-02
    4    -435.2952343871      1.14E-02
    5    -435.3337447448      6.95E-03
    6    -435.3570721805      2.66E-03
    7    -435.3610724349      9.77E-04
    8    -435.3617959570      2.05E-04
    9    -435.3618486829      3.73E-05
   10    -435.3618529335      1.44E-05
   11    -435.3618537417      7.19E-06 Convergence criterion met
 ---------------------------------------
 <S^2> = 0.0000
 SCF time:  CPU 12.23 s  wall 2.68 s
 SCF   energy in the final basis set = -435.3618537417
 Total energy in the final basis set = -435.3618537417
 
 --------------------------------------------------------------
 
                    Orbital Energies (a.u.)
 --------------------------------------------------------------
 
 Alpha MOs
 -- Occupied --
-26.566 -26.537 -26.535 -25.946 -11.747  -1.995  -1.888  -1.855
 -1.206  -1.135  -1.058  -1.053  -1.001  -0.881  -0.879  -0.855
 -0.836  -0.821  -0.315  -0.315  -0.312
 -- Virtual --
 -0.030   0.306   0.380   0.396   0.552   0.595   0.646   0.708
  1.170   1.199   1.203   1.305   1.307   1.398   1.466   1.470
  1.480   1.481   1.505   1.528   1.618   1.763   1.775   1.847
  1.864   1.895   1.954   1.961   1.987   2.062   2.079   2.180
  2.197   2.214   2.298   2.310   2.426   2.427   2.439   2.441
  2.602   2.850   2.870   2.916   3.193   3.243   3.425   3.444
  3.519   4.167   4.503   4.896   5.023   5.781
 
 Beta MOs
 -- Occupied --
-26.566 -26.537 -26.535 -25.946 -11.747  -1.995  -1.888  -1.855
 -1.206  -1.135  -1.058  -1.053  -1.001  -0.881  -0.879  -0.855
 -0.836  -0.821  -0.315  -0.315  -0.312
 -- Virtual --
 -0.030   0.306   0.380   0.396   0.552   0.595   0.646   0.708
  1.170   1.199   1.203   1.305   1.307   1.398   1.466   1.470
  1.480   1.481   1.505   1.528   1.618   1.763   1.775   1.847
  1.864   1.895   1.954   1.961   1.987   2.062   2.079   2.180
  2.197   2.214   2.298   2.310   2.426   2.427   2.439   2.441
  2.602   2.850   2.870   2.916   3.193   3.243   3.425   3.444
  3.519   4.167   4.503   4.896   5.023   5.781
 --------------------------------------------------------------
 
          Ground-State Mulliken Net Atomic Charges

     Atom                 Charge (a.u.)    Spin (a.u.)
  --------------------------------------------------------
      1 C                     1.110512       0.000000
      2 F                    -0.082089       0.000000
      3 F                    -0.030691       0.000000
      4 F                    -0.890134       0.000000
      5 F                    -0.107597       0.000000
  --------------------------------------------------------
  Sum of atomic charges =     0.000000
  Sum of spin   charges =     0.000000

 -----------------------------------------------------------------
                    Cartesian Multipole Moments
 -----------------------------------------------------------------
    Charge (ESU x 10^10)
                 0.0000
    Dipole Moment (Debye)
         X       3.2842      Y      10.4393      Z      -3.3664
       Tot      11.4498
    Quadrupole Moments (Debye-Ang)
        XX     -28.3660     XY      -3.2406     YY      15.7824
        XZ       3.6154     YZ      -3.6943     ZZ     -24.1253
    Octopole Moments (Debye-Ang^2)
       XXX      57.7187    XXY     -52.6537    XYY      -0.9787
       YYY     -32.2366    XXZ      -4.7943    XYZ       2.2354
       YYZ      -8.2393    XZZ      18.1075    YZZ     -52.1430
       ZZZ      -2.5707
    Hexadecapole Moments (Debye-Ang^3)
      XXXX    -157.1281   XXXY     103.8515   XXYY    -162.5181
      XYYY      44.3154   YYYY    -479.2805   XXXZ      10.9333
      XXYZ       2.4771   XYYZ       2.6680   YYYZ     -11.1315
      XXZZ     -39.3492   XYZZ      33.4377   YYZZ    -156.4415
      XZZZ       6.9080   YZZZ      12.9663   ZZZZ     -79.4899
 -----------------------------------------------------------------
Archival summary:
1\1\tp-linux1\SP\HF\6-31G*\41\thomas\FriMar1706:57:302017FriMar1706:57:302017\0\\#,HF,6-31G*,\\0,1\C\F,1,1.16662\F,1,1.21083,2,119.853\F,1,1.22381,2,119.045,3,-152.868,0\F,1,2.66465,2,85.0183,3,-72.8103,0\\HF=-435.361854\\@

 Total job time:  3.00s(wall), 13.98s(cpu) 
 Fri Mar 17 06:57:30 2017

        *************************************************************
        *                                                           *
        *  Thank you very much for using Q-Chem.  Have a nice day.  *
        *                                                           *
        *************************************************************


0 sent ACK to 0 
now end server 0 ... 
cleanup process ... done

Running Job 2 of 2 ddtraj2t27.inp
qchem ddtraj2t27.inp_9145.1 /scratch/qchem/qchem9145/ 1
/mnt/software/qchem/bin/mpi/mpirun_qchem -machinefile /mnt/software/qchem/bin/mpi/machines -np 1 /mnt/software/qchem/exe/qcprog.exe ddtraj2t27.inp_9145.1 /scratch/qchem/qchem9145/

Process 0 of 1 is on tp-linux1 - thread support 0
initial socket setup ...start
initial socket setup ...done 
now start server 0 ... 

cmd = ssh tp-linux1 /mnt/software/qchem/bin/get_hostid 354017126 > /scratch/qchem/qchem9145/lic.dat
                  Welcome to Q-Chem
     A Quantum Leap Into The Future Of Chemistry


 Q-Chem 4.3, Q-Chem, Inc., Pleasanton, CA (2015)

 Y. Shao,  Z. Gan,  E. Epifanovsky,  A. T. B. Gilbert,  M. Wormit,  
 J. Kussmann,  A. W. Lange,  A. Behn,  J. Deng,  X. Feng,  D. Ghosh,  
 M. Goldey,  P. R. Horn,  L. D. Jacobson,  I. Kaliman,  R. Z. Khaliullin,  
 T. Kus,  A. Landau,  J. Liu,  E. I. Proynov,  Y. M. Rhee,  R. M. Richard,  
 M. A. Rohrdanz,  R. P. Steele,  E. J. Sundstrom,  H. L. Woodcock III,  
 P. M. Zimmerman,  D. Zuev,  B. Albrecht,  E. Alguire,  B. Austin,  
 S. A. Baeppler,  G. J. O. Beran,  Y. A. Bernard,  E. Berquist,  
 K. Brandhorst,  K. B. Bravaya,  S. T. Brown,  D. Casanova,  C.-M. Chang,  
 Y. Chen,  S. H. Chien,  K. D. Closser,  D. L. Crittenden,  M. Diedenhofen,  
 R. A. DiStasio Jr.,  H. Do,  A. D. Dutoi,  R. G. Edgar,  P.-T. Fang,  
 S. Fatehi,  Q. Feng,  L. Fusti-Molnar,  A. Ghysels,  
 A. Golubeva-Zadorozhnaya,  J. Gomes,  A. Gunina,  M. W. D. Hanson-Heine,  
 P. H. P. Harbach,  A. W. Hauser,  E. G. Hohenstein,  Z. C. Holden,  K. Hui,  
 T.-C. Jagau,  H. Ji,  B. Kaduk,  K. Khistyaev,  Jaehoon Kim,  Jihan Kim,  
 R. A. King,  P. Klunzinger,  D. Kosenkov,  T. Kowalczyk,  C. M. Krauter,  
 K. U. Lao,  A. Laurent,  K. V. Lawler,  S. Lehtola,  S. V. Levchenko,  
 C. Y. Lin,  Y.-S. Lin,  F. Liu,  E. Livshits,  R. C. Lochan,  A. Luenser,  
 P. Manohar,  S. F. Manzer,  S.-P. Mao,  N. Mardirossian,  A. V. Marenich,  
 L. A. Martinez-Martinez,  S. A. Maurer,  N. J. Mayhall,  K. Nanda,  
 C. M. Oana,  R. Olivares-Amaya,  D. P. O'Neill,  J. A. Parkhill,  
 T. M. Perrine,  R. Peverati,  P. A. Pieniazek,  F. Plasser,  A. Prociuk,  
 D. R. Rehn,  E. Rosta,  N. J. Russ,  N. Sergueev,  S. M. Sharada,  
 S. Sharma,  D. W. Small,  A. Sodt,  T. Stauch,  T. Stein,  D. Stuck,  
 Y.-C. Su,  A. J. W. Thom,  T. Tsuchimochi,  L. Vogt,  O. Vydrov,  T. Wang,  
 M. A. Watson,  J. Wenzel,  A. White,  C. F. Williams,  V. Vanovschi,  
 S. Yeganeh,  S. R. Yost,  Z.-Q. You,  I. Y. Zhang,  X. Zhang,  Y. Zhao,  
 B. R. Brooks,  G. K. L. Chan,  D. M. Chipman,  C. J. Cramer,  
 W. A. Goddard III,  M. S. Gordon,  W. J. Hehre,  A. Klamt,  
 H. F. Schaefer III,  M. W. Schmidt,  C. D. Sherrill,  D. G. Truhlar,  
 A. Warshel,  X. Xu,  A. Aspuru-Guzik,  R. Baer,  A. T. Bell,  N. A. Besley,  
 J.-D. Chai,  A. Dreuw,  B. D. Dunietz,  T. R. Furlani,  S. R. Gwaltney,  
 C.-P. Hsu,  Y. Jung,  J. Kong,  D. S. Lambrecht,  W. Liang,  C. Ochsenfeld,  
 V. A. Rassolov,  L. V. Slipchenko,  J. E. Subotnik,  T. Van Voorhis,  
 J. M. Herbert,  A. I. Krylov,  P. M. W. Gill,  M. Head-Gordon

 Contributors to earlier versions of Q-Chem not listed above: 
 R. D. Adamson,  J. Baker,  E. F. C. Byrd,  A. K. Chakraborty,  C.-L. Cheng,  
 H. Dachsel,  R. J. Doerksen,  G. Hawkins,  A. Heyden,  S. Hirata,  
 G. Kedziora,  F. J. Keil,  C. Kelley,  P. P. Korambath,  W. Kurlancheek,  
 A. M. Lee,  M. S. Lee,  D. Liotard,  I. Lotan,  P. E. Maslen,  N. Nair,  
 D. Neuhauser,  R. Olson,  B. Peters,  J. Ritchie,  N. E. Schultz,  
 N. Shenvi,  A. C. Simmonett,  K. S. Thanthiriwatte,  Q. Wu,  W. Zhang

 Please cite Q-Chem as follows:
 Y. Shao et al., Mol. Phys. 113, 184-215 (2015)
 DOI: 10.1080/00268976.2014.952696

 Q-Chem 4.3.0 for Intel X86 Linux

 Parts of Q-Chem use Armadillo 5.200.1 (Boston Tea Smuggler).
 http://arma.sourceforge.net/

 Q-Chem begins on Fri Mar 17 06:57:32 2017  

Host: 
0

     Scratch files written to /scratch/qchem/qchem9145//
 Nov1815 1189b_ 19540  19532 5443   
 Parallel job on  1  processors
Processing $rem in /mnt/software/qchem/config/preferences.
 MEM_TOTAL  2000 

Checking the input file for inconsistencies... 	...done.

--------------------------------------------------------------
User input:
--------------------------------------------------------------

$comment
job3 - cvs-adc(2) calculation
$end

$molecule
read
$end

$rem
mem_total 3000
mem_static 1500
sym_ignore true
scf_guess read
method cvs-adc(2)
basis 6-31G*
ee_singlets 20
cc_rest_occ 5                  !only excitations from the lowest N orbitals
unrestricted  true
max_scf_cycles 200
$end
--------------------------------------------------------------
 ----------------------------------------------------------------
             Standard Nuclear Orientation (Angstroms)
    I     Atom           X                Y                Z
 ----------------------------------------------------------------
    1      C      -0.5104940000     2.9766900000    -0.1920630000
    2      F       0.5471670000     2.4132880000    -0.0187410000
    3      F      -1.1128060000     3.3758060000     0.7238700000
    4      F      -1.2836780000     0.5676220000     0.6439680000
    5      F      -1.1136310000     2.6699060000    -1.2117790000
 ----------------------------------------------------------------
 Nuclear Repulsion Energy =   191.0660761356 hartrees
 There are       21 alpha and       21 beta electrons
 Requested basis set is 6-31G(d)
 There are 20 shells and 75 basis functions

 Total QAlloc Memory Limit   3000 MB
 Mega-Array Size      1467 MB
 MEM_STATIC part      1500 MB

                       Distance Matrix (Angstroms)
             C (  1)   F (  2)   F (  3)   F (  4)
   F (  2)  1.210830
   F (  3)  1.166622  2.057528
   F (  4)  2.664652  2.682845  2.814512
   F (  5)  1.223810  2.060932  2.060348  2.809326
 
 tim1(1): 
  0.000000000000000E+000
 tim1(2): 
  0.000000000000000E+000
 A cutoff of  1.0D-11 yielded    197 shell pairs
 There are      2954 function pairs
 
 -------------------------------------------------------
 OpenMP Integral Computing Module                       
 Release: version 1.0, May 2013, Q-Chem Inc. Pittsburgh 
 -------------------------------------------------------
 Integral Job Info:
 Integral job number is                      11
 Integral operator is                         1
 short-range coefficients                     0
 long-range coefficients              100000000
 Omega coefficients                           0
 if combine SR and LR in K                    0
 Integral screening is                        0
 Integral computing path is                   2
 max size of driver memory is            800000
 size of driver memory is                593474
 size of scratch memory is              2260544
 max col of scratch BK array               1296
 max len of scratch array in speh3          155
 max len of scratch index in speh4           18
 max int batch size is                      520
 min int batch size is                       52
 fixed nKL is                                52
 max L of basis functions is                  2
 order of int derivative is                   0
 number of shells is                         20
 number of basis is                          75
 number of cartesian basis is                75
 number of contracted shell pairs           197
 number of primitive shell pairs           1008
 maxK2 (contraction) of shell pair           36
 max number of K2 of shell pair               1
 max number of CS2 of shell pair             32
 max number of PS2 of shell pair            192
 mem total for path MDJ                   21832
 -------------------------------------------------------
 Smallest overlap matrix eigenvalue = 2.44E-03

 Scale SEOQF with 1.000000e+00/1.000000e-01/1.000000e+00

 Standard Electronic Orientation quadrupole field applied
 Nucleus-field energy     =     0.0000000110 hartrees
 Guess MOs from SCF MO coefficient file
 Reading MOs from coefficient file
 Reading MOs from coefficient file
 An unrestricted Hartree-Fock SCF calculation will be
 performed using Pulay DIIS extrapolation
 SCF converges when DIIS error is below 1.0E-08
 using 8 threads for integral computing 
 ---------------------------------------
  Cycle       Energy         DIIS Error
 ---------------------------------------
    1    -435.3618541813      2.37E-06
    2    -435.3618542169      1.46E-06
    3    -435.3618542380      8.04E-07
    4    -435.3618542432      1.98E-07
    5    -435.3618542434      6.10E-08
    6    -435.3618542434      1.17E-08
    7    -435.3618542434      5.33E-09 Convergence criterion met
 ---------------------------------------
 <S^2> = 0.0000
 SCF time:  CPU 7.20 s  wall 1.88 s
 SCF   energy in the final basis set = -435.3618542434
 Total energy in the final basis set = -435.3618542434
================================================================================
|                                                                              |
|                                 A D C  M A N                                 |
|                                                                              |
 ------------------------------------------------------------------------------ 
|                                                                              |
| Components:                                                                  |
|                                                                              |
| - libvmm - 1.2-release                                                       |
|   Authors:                                                                   |
|   Evgeny Epifanovsky, Ilya Kaliman                                           |
|                                                                              |
| - libtensor - 2.4-trunk                                                      |
|   Authors:                                                                   |
|   Evgeny Epifanovsky, Michael Wormit, Dmitry Zuev, Sam Manzer                |
|                                                                              |
| - libwfa - 1.1-beta                                                          |
|   Authors:                                                                   |
|   Felix Plasser, Stefanie Baeppler, Benjamin Thomitzni, Michael Wormit       |
|                                                                              |
| - libadc - 1.0-beta                                                          |
|   Authors:                                                                   |
|   Michael Wormit, Philipp H. P. Harbach, Caroline Krauter, Dirk Rehn,        |
|   Matthias Schneider, Jan Wenzel                                             |
|                                                                              |
| - adcman - 2.4-beta                                                          |
|   Authors:                                                                   |
|   Michael Wormit, Philipp H. P. Harbach, Caroline Krauter, Dirk Rehn,        |
|   Jan Wenzel, Andreas Dreuw                                                  |
|                                                                              |
| Authors of earlier versions of ADCMAN:                                       |
| Andreas Dreuw, Jan Hendrik Starcke, Dirk Rehn, Michael Wormit                |
|                                                                              |
================================================================================

 
 Alpha MOs, Unrestricted
 -- Occupied --                  
-26.566 -26.537 -26.535 -25.946 -11.747  -1.995  -1.888  -1.855
  1 A     2 A     3 A     4 A     5 A     6 A     7 A     8 A                  
 -1.206  -1.135  -1.058  -1.053  -1.001  -0.881  -0.879  -0.855
  9 A    10 A    11 A    12 A    13 A    14 A    15 A    16 A                  
 -0.836  -0.821  -0.315  -0.315  -0.312
 17 A    18 A    19 A    20 A    21 A                                          
 -- Virtual --                   
 -0.030   0.306   0.380   0.396   0.552   0.595   0.646   0.708
 22 A    23 A    24 A    25 A    26 A    27 A    28 A    29 A                  
  1.170   1.199   1.204   1.305   1.307   1.398   1.466   1.470
 30 A    31 A    32 A    33 A    34 A    35 A    36 A    37 A                  
  1.480   1.481   1.505   1.528   1.618   1.763   1.775   1.847
 38 A    39 A    40 A    41 A    42 A    43 A    44 A    45 A                  
  1.864   1.895   1.954   1.961   1.987   2.062   2.079   2.180
 46 A    47 A    48 A    49 A    50 A    51 A    52 A    53 A                  
  2.197   2.214   2.298   2.310   2.426   2.426   2.439   2.441
 54 A    55 A    56 A    57 A    58 A    59 A    60 A    61 A                  
  2.602   2.850   2.870   2.916   3.193   3.243   3.425   3.444
 62 A    63 A    64 A    65 A    66 A    67 A    68 A    69 A                  
  3.519   4.167   4.503   4.896   5.023   5.781
 70 A    71 A    72 A    73 A    74 A    75 A                                  
 
 Beta MOs, Unrestricted
 -- Occupied --                  
-26.566 -26.537 -26.535 -25.946 -11.747  -1.995  -1.888  -1.855
  1 A     2 A     3 A     4 A     5 A     6 A     7 A     8 A                  
 -1.206  -1.135  -1.058  -1.053  -1.001  -0.881  -0.879  -0.855
  9 A    10 A    11 A    12 A    13 A    14 A    15 A    16 A                  
 -0.836  -0.821  -0.315  -0.315  -0.312
 17 A    18 A    19 A    20 A    21 A                                          
 -- Virtual --                   
 -0.030   0.306   0.380   0.396   0.552   0.595   0.646   0.708
 22 A    23 A    24 A    25 A    26 A    27 A    28 A    29 A                  
  1.170   1.199   1.204   1.305   1.307   1.398   1.466   1.470
 30 A    31 A    32 A    33 A    34 A    35 A    36 A    37 A                  
  1.480   1.481   1.505   1.528   1.618   1.763   1.775   1.847
 38 A    39 A    40 A    41 A    42 A    43 A    44 A    45 A                  
  1.864   1.895   1.954   1.961   1.987   2.062   2.079   2.180
 46 A    47 A    48 A    49 A    50 A    51 A    52 A    53 A                  
  2.197   2.214   2.298   2.310   2.426   2.426   2.439   2.441
 54 A    55 A    56 A    57 A    58 A    59 A    60 A    61 A                  
  2.602   2.850   2.870   2.916   3.193   3.243   3.425   3.444
 62 A    63 A    64 A    65 A    66 A    67 A    68 A    69 A                  
  3.519   4.167   4.503   4.896   5.023   5.781
 70 A    71 A    72 A    73 A    74 A    75 A                                  
 

--------------------------------------------------------------------------------
                                   HF Summary                                   
--------------------------------------------------------------------------------
  Energy:                                                 -435.3618542434 a.u.
  Dip. moment [a.u.]:                  [ -57.472648,  183.164349,    1.482166]
  Total dipole [Debye]:                                             487.952402
  <r^2> [a.u.]:                        [ 168.914365,  971.022491,   96.101197]
  Total <r^2> [a.u.]:                                              1236.038054
--------------------------------------------------------------------------------

--------------------------------------------------------------------------------
                                 MP(2) Summary                                  
--------------------------------------------------------------------------------
  Energy contribution:                                      -0.7976948614 a.u.
  Total energy:                                           -436.1595491048 a.u.
  Dip. moment [a.u.]:                  [ -57.409995,  183.369033,    1.424988]
  Total dipole [Debye]:                                             488.400101
  <r^2> [a.u.]:                        [ 168.604496,  972.950252,   95.935059]
  Total <r^2> [a.u.]:                                              1237.489808
--------------------------------------------------------------------------------
  Starting Davidson ... 
--------------------------------------------------------------------------------
   It NVec Conv  Avg. Norm  Max. Norm  Conv. states           Remark
--------------------------------------------------------------------------------
        20    0  2.084e-01  1.062e+00 10.9694 n n n n n n n n Guess.
    1   40    0  3.879e-02  5.010e-01 10.8075 n n n n n n n n 
    2   60    0  8.456e-03  8.446e-02 10.8062 n n n n n n n n 
    3   80    0  2.444e-03  2.793e-02 10.8061 n n n n n n n n 
    4  100    0  1.263e-03  1.525e-02 10.8061 n n n n n n n n 
    5   40    0  6.698e-04  8.185e-03 10.8061 n n n n n n n n Subspace collapsed.
    6   60    0  5.100e-04  5.871e-03 10.8061 n n n n n n n n 
    7   80    0  4.822e-04  6.041e-03 10.8061 n n n n n n n n 
    8  100    2  1.036e-03  1.933e-02 10.8061 y y n n n n n n 
    9   40    7  4.970e-04  9.332e-03 10.8061 y y n y y y y y Subspace collapsed.
   10   60    7  2.863e-04  4.953e-03 10.8061 y y n y y y y y 
   11   80   13  2.613e-04  4.406e-03 10.8061 y y y y y y y y 
   12  100   13  3.925e-04  6.418e-03 10.8061 y y y y y y y y 
   13   40   14  2.246e-04  3.632e-03 10.8061 y y y y y y y y Subspace collapsed.
   14   60   14  3.379e-04  5.865e-03 10.8061 y y y y y y y y 
   15   80   14  4.918e-04  9.240e-03 10.8061 y y y y y y y y 
   16   99   14  1.787e-03  3.523e-02 10.8061 y y y y y y y y 
   17   99   14  1.787e-03  3.523e-02 10.8061 y y y y y y y y 
   18  100   14  1.814e-03  3.576e-02 10.8061 y y y y y y y y 
   19   39   15  8.655e-04  1.700e-02 10.8061 y y y y y y y y Subspace collapsed.
   20   57   15  6.325e-04  1.191e-02 10.8061 y y y y y y y y 
   21   58   15  6.325e-04  1.192e-02 10.8061 y y y y y y y y 
   22   74   16  4.723e-04  8.571e-03 10.8061 y y y y y y y y 
   23   88   16  6.855e-04  1.290e-02 10.8061 y y y y y y y y 
   24  100   16  1.603e-03  3.065e-02 10.8061 y y y y y y y y 
   25   23   16  1.593e-03  3.039e-02 10.8061 y y y y y y y y Subspace collapsed.
   26   23   16  1.593e-03  3.039e-02 10.8061 y y y y y y y y 
   27   42   16  8.456e-04  1.602e-02 10.8061 y y y y y y y y 
   28   45   16  8.542e-04  1.614e-02 10.8061 y y y y y y y y 
   29   46   16  8.548e-04  1.616e-02 10.8061 y y y y y y y y 
   30   47   16  8.558e-04  1.616e-02 10.8061 y y y y y y y y 
   31   48   16  8.572e-04  1.616e-02 10.8061 y y y y y y y y 
   32   48   16  8.572e-04  1.616e-02 10.8061 y y y y y y y y 
   33   48   16  8.572e-04  1.616e-02 10.8061 y y y y y y y y 
   34   68   16  7.664e-04  1.423e-02 10.8061 y y y y y y y y 
   35   68   16  7.664e-04  1.423e-02 10.8061 y y y y y y y y 
   36   68   16  7.664e-04  1.423e-02 10.8061 y y y y y y y y 
   37   88   16  7.813e-04  1.448e-02 10.8061 y y y y y y y y 
   38   94   16  9.612e-04  1.831e-02 10.8061 y y y y y y y y 
   39  100   16  1.363e-03  2.615e-02 10.8061 y y y y y y y y 
   40   26   16  8.178e-04  1.545e-02 10.8061 y y y y y y y y Subspace collapsed.
   41   32   16  8.091e-04  1.503e-02 10.8061 y y y y y y y y 
   42   38   16  8.914e-04  1.620e-02 10.8061 y y y y y y y y 
   43   44   16  9.881e-04  1.785e-02 10.8061 y y y y y y y y 
   44   50   16  1.255e-03  2.277e-02 10.8061 y y y y y y y y 
   45   56   16  1.249e-03  2.141e-02 10.8061 y y y y y y y y 
   46   62   16  1.286e-03  1.873e-02 10.8061 y y y y y y y y 
   47   68   16  1.841e-03  2.974e-02 10.8061 y y y y y y y y 
   48   74   17  2.184e-03  3.583e-02 10.8061 y y y y y y y y 
   49   80   18  1.485e-03  2.488e-02 10.8061 y y y y y y y y 
   50   86   18  7.400e-04  1.260e-02 10.8061 y y y y y y y y 
   51   92   18  4.405e-04  8.191e-03 10.8061 y y y y y y y y 
   52   98   18  2.081e-04  3.890e-03 10.8061 y y y y y y y y 
   53  100   18  2.047e-04  3.819e-03 10.8061 y y y y y y y y 
   54   26   18  9.588e-05  1.724e-03 10.8061 y y y y y y y y Subspace collapsed.
   55   32   18  5.567e-05  9.906e-04 10.8061 y y y y y y y y 
   56   38   18  3.026e-05  5.498e-04 10.8061 y y y y y y y y 
   57   38   18  3.026e-05  5.498e-04 10.8061 y y y y y y y y 
   58   39   18  3.027e-05  5.500e-04 10.8061 y y y y y y y y 
   59   39   18  3.027e-05  5.500e-04 10.8061 y y y y y y y y 
--------------------------------------------------------------------------------
  Davidson Summary: 
 ------------------------------------------------------------
  State  0: excitation energy =  10.8061 a.u.   (converged)
  State  1: excitation energy =  10.8742 a.u.   (converged)
  State  2: excitation energy =  11.1907 a.u.   (converged)
  State  3: excitation energy =  11.2215 a.u.   (converged)
  State  4: excitation energy =  11.2547 a.u.   (converged)
  State  5: excitation energy =  11.2771 a.u.   (converged)
  State  6: excitation energy =  11.2991 a.u.   (converged)
  State  7: excitation energy =  11.3511 a.u.   (converged)
  State  8: excitation energy =  11.4826 a.u.   (converged)
  State  9: excitation energy =  11.5435 a.u.   (converged)
  State 10: excitation energy =  11.5497 a.u.   (converged)
  State 11: excitation energy =  11.5574 a.u.   (converged)
  State 12: excitation energy =  11.5647 a.u.   (converged)
  State 13: excitation energy =  11.5768 a.u.   (converged)
  State 14: excitation energy =  11.6803 a.u.   (converged)
  State 15: excitation energy =  11.7089 a.u.   (converged)
  State 16: excitation energy =  12.1891 a.u.   (converged)
  State 17: excitation energy =  12.1960 a.u.   (converged)
  State 18: excitation energy =  12.2181 a.u.   (not converged)
  State 19: excitation energy =  12.2238 a.u.   (not converged)
 ------------------------------------------------------------


--------------------------------------------------------------------------------
                             Excited State Summary
--------------------------------------------------------------------------------

  Excited state  1 (A)                                             [converged]
  ----------------------------------------------------------------------------
  Term symbol:  2 (-) A                                     R^2 =  5.49346e-14

  Total energy:                                           -425.3534411135 a.u.
  Excitation energy:                                             294.049153 eV

  Osc. strength:                                                      0.000000
  Trans. dip. moment [a.u.]:           [   0.000000,    0.000000,   -0.000000]
  <i|r^2|0> [a.u.]:                    [  -0.000000,    0.000000,    0.000000]

  V1^2 = 0.9571, V2^2 = 0.0429

  Important amplitudes:
     core i     occ j      vir a      vir b          v   
    ------------------------------------------------------
     5 (A) B              22 (A) B                 0.6418
     5 (A) A              22 (A) A                -0.6418
    ------------------------------------------------------
  ----------------------------------------------------------------------------


  Excited state  2 (A)                                             [converged]
  ----------------------------------------------------------------------------
  Term symbol:  3 (-) A                                     R^2 =  6.19126e-14

  Total energy:                                           -425.2853955619 a.u.
  Excitation energy:                                             295.900767 eV

  Osc. strength:                                                      0.097218
  Trans. dip. moment [a.u.]:           [   0.042032,    0.101308,   -0.037154]
  <i|r^2|0> [a.u.]:                    [  -0.075422,    1.148783,    0.032521]

  V1^2 = 0.9519, V2^2 = 0.0481

  Important amplitudes:
     core i     occ j      vir a      vir b          v   
    ------------------------------------------------------
     5 (A) A              22 (A) A                 0.6571
     5 (A) B              22 (A) B                 0.6571
    ------------------------------------------------------
  ----------------------------------------------------------------------------


  Excited state  3 (A)                                             [converged]
  ----------------------------------------------------------------------------
  Term symbol:  4 (-) A                                     R^2 =  1.02924e-13

  Total energy:                                           -424.9688821123 a.u.
  Excitation energy:                                             304.513536 eV

  Osc. strength:                                                      0.000000
  Trans. dip. moment [a.u.]:           [   0.000000,    0.000000,    0.000000]
  <i|r^2|0> [a.u.]:                    [  -0.000000,    0.000000,   -0.000000]

  V1^2 = 0.9350, V2^2 = 0.0650

  Important amplitudes:
     core i     occ j      vir a      vir b          v   
    ------------------------------------------------------
     5 (A) B              23 (A) B                -0.5736
     5 (A) A              23 (A) A                 0.5736
    ------------------------------------------------------
  ----------------------------------------------------------------------------


  Excited state  4 (A)                                             [converged]
  ----------------------------------------------------------------------------
  Term symbol:  5 (-) A                                     R^2 =  1.47372e-13

  Total energy:                                           -424.9380946997 a.u.
  Excitation energy:                                             305.351304 eV

  Osc. strength:                                                      0.000000
  Trans. dip. moment [a.u.]:           [   0.000000,    0.000000,    0.000000]
  <i|r^2|0> [a.u.]:                    [  -0.000000,    0.000000,   -0.000000]

  V1^2 = 0.9523, V2^2 = 0.0477

  Important amplitudes:
     core i     occ j      vir a      vir b          v   
    ------------------------------------------------------
     5 (A) B              27 (A) B                 0.4928
     5 (A) A              27 (A) A                -0.4928
    ------------------------------------------------------
  ----------------------------------------------------------------------------


  Excited state  5 (A)                                             [converged]
  ----------------------------------------------------------------------------
  Term symbol:  6 (-) A                                     R^2 =  2.97481e-13

  Total energy:                                           -424.9048811726 a.u.
  Excitation energy:                                             306.255090 eV

  Osc. strength:                                                      0.029155
  Trans. dip. moment [a.u.]:           [   0.023047,    0.057514,    0.006834]
  <i|r^2|0> [a.u.]:                    [  -0.058471,    0.624077,   -0.017934]

  V1^2 = 0.9244, V2^2 = 0.0756

  Important amplitudes:
     core i     occ j      vir a      vir b          v   
    ------------------------------------------------------
     5 (A) A              23 (A) A                -0.6290
     5 (A) B              23 (A) B                -0.6290
    ------------------------------------------------------
  ----------------------------------------------------------------------------


  Excited state  6 (A)                                             [converged]
  ----------------------------------------------------------------------------
  Term symbol:  7 (-) A                                     R^2 =  1.04851e-13

  Total energy:                                           -424.8824695360 a.u.
  Excitation energy:                                             306.864941 eV

  Osc. strength:                                                      0.000000
  Trans. dip. moment [a.u.]:           [   0.000000,   -0.000000,    0.000000]
  <i|r^2|0> [a.u.]:                    [  -0.000000,   -0.000000,   -0.000000]

  V1^2 = 0.9504, V2^2 = 0.0496

  Important amplitudes:
     core i     occ j      vir a      vir b          v   
    ------------------------------------------------------
     5 (A) B              28 (A) B                -0.4994
     5 (A) A              28 (A) A                 0.4994
    ------------------------------------------------------
  ----------------------------------------------------------------------------


  Excited state  7 (A)                                             [converged]
  ----------------------------------------------------------------------------
  Term symbol:  8 (-) A                                     R^2 =  1.12923e-13

  Total energy:                                           -424.8604496958 a.u.
  Excitation energy:                                             307.464132 eV

  Osc. strength:                                                      0.115260
  Trans. dip. moment [a.u.]:           [   0.091724,   -0.017835,    0.081054]
  <i|r^2|0> [a.u.]:                    [  -0.179672,   -0.199543,   -0.052435]

  V1^2 = 0.9440, V2^2 = 0.0560

  Important amplitudes:
     core i     occ j      vir a      vir b          v   
    ------------------------------------------------------
     5 (A) A              24 (A) A                 0.5090
     5 (A) B              24 (A) B                 0.5090
    ------------------------------------------------------
  ----------------------------------------------------------------------------


  Excited state  8 (A)                                             [converged]
  ----------------------------------------------------------------------------
  Term symbol:  9 (-) A                                     R^2 =  7.87238e-14

  Total energy:                                           -424.8084416689 a.u.
  Excitation energy:                                             308.879342 eV

  Osc. strength:                                                      0.105815
  Trans. dip. moment [a.u.]:           [   0.067540,   -0.048175,   -0.084265]
  <i|r^2|0> [a.u.]:                    [  -0.132673,   -0.543591,    0.065651]

  V1^2 = 0.9401, V2^2 = 0.0599

  Important amplitudes:
     core i     occ j      vir a      vir b          v   
    ------------------------------------------------------
     5 (A) A              25 (A) A                -0.4898
     5 (A) B              25 (A) B                -0.4898
    ------------------------------------------------------
  ----------------------------------------------------------------------------


  Excited state  9 (A)                                             [converged]
  ----------------------------------------------------------------------------
  Term symbol:  10 (-) A                                    R^2 =  7.32721e-14

  Total energy:                                           -424.6769069040 a.u.
  Excitation energy:                                             312.458585 eV

  Osc. strength:                                                      0.000000
  Trans. dip. moment [a.u.]:           [  -0.000000,   -0.000000,   -0.000000]
  <i|r^2|0> [a.u.]:                    [   0.000000,   -0.000000,    0.000000]

  V1^2 = 0.9230, V2^2 = 0.0770

  Important amplitudes:
     core i     occ j      vir a      vir b          v   
    ------------------------------------------------------
     5 (A) B              26 (A) B                -0.5902
     5 (A) A              26 (A) A                 0.5902
    ------------------------------------------------------
  ----------------------------------------------------------------------------


  Excited state 10 (A)                                             [converged]
  ----------------------------------------------------------------------------
  Term symbol:  11 (-) A                                    R^2 =  1.30559e-13

  Total energy:                                           -424.6160390646 a.u.
  Excitation energy:                                             314.114883 eV

  Osc. strength:                                                      0.017441
  Trans. dip. moment [a.u.]:           [   0.017863,    0.041746,   -0.014303]
  <i|r^2|0> [a.u.]:                    [  -0.012976,    0.493867,    0.031353]

  V1^2 = 0.9207, V2^2 = 0.0793

  Important amplitudes:
     core i     occ j      vir a      vir b          v   
    ------------------------------------------------------
     5 (A) B              26 (A) B                -0.6403
     5 (A) A              26 (A) A                -0.6403
    ------------------------------------------------------
  ----------------------------------------------------------------------------


  Excited state 11 (A)                                             [converged]
  ----------------------------------------------------------------------------
  Term symbol:  12 (-) A                                    R^2 =  1.10819e-13

  Total energy:                                           -424.6098104722 a.u.
  Excitation energy:                                             314.284372 eV

  Osc. strength:                                                      0.000000
  Trans. dip. moment [a.u.]:           [  -0.000000,    0.000000,   -0.000000]
  <i|r^2|0> [a.u.]:                    [   0.000000,    0.000000,    0.000000]

  V1^2 = 0.8981, V2^2 = 0.1019

  Important amplitudes:
     core i     occ j      vir a      vir b          v   
    ------------------------------------------------------
     5 (A) B              24 (A) B                 0.4878
     5 (A) A              24 (A) A                -0.4878
    ------------------------------------------------------
  ----------------------------------------------------------------------------


  Excited state 12 (A)                                             [converged]
  ----------------------------------------------------------------------------
  Term symbol:  13 (-) A                                    R^2 =  8.59774e-14

  Total energy:                                           -424.6021652603 a.u.
  Excitation energy:                                             314.492409 eV

  Osc. strength:                                                      0.000000
  Trans. dip. moment [a.u.]:           [   0.000000,   -0.000000,   -0.000000]
  <i|r^2|0> [a.u.]:                    [  -0.000000,   -0.000000,    0.000000]

  V1^2 = 0.8987, V2^2 = 0.1013

  Important amplitudes:
     core i     occ j      vir a      vir b          v   
    ------------------------------------------------------
     5 (A) B              25 (A) B                 0.5118
     5 (A) A              25 (A) A                -0.5118
    ------------------------------------------------------
  ----------------------------------------------------------------------------


  Excited state 13 (A)                                             [converged]
  ----------------------------------------------------------------------------
  Term symbol:  14 (-) A                                    R^2 =  3.22708e-13

  Total energy:                                           -424.5948559217 a.u.
  Excitation energy:                                             314.691306 eV

  Osc. strength:                                                      0.030625
  Trans. dip. moment [a.u.]:           [   0.051284,   -0.006000,    0.036142]
  <i|r^2|0> [a.u.]:                    [  -0.101128,   -0.067913,   -0.024276]

  V1^2 = 0.9019, V2^2 = 0.0981

  Important amplitudes:
     core i     occ j      vir a      vir b          v   
    ------------------------------------------------------
     5 (A) A              27 (A) A                 0.5059
     5 (A) B              27 (A) B                 0.5059
    ------------------------------------------------------
  ----------------------------------------------------------------------------


  Excited state 14 (A)                                             [converged]
  ----------------------------------------------------------------------------
  Term symbol:  15 (-) A                                    R^2 =  2.41929e-13

  Total energy:                                           -424.5827116966 a.u.
  Excitation energy:                                             315.021767 eV

  Osc. strength:                                                      0.039727
  Trans. dip. moment [a.u.]:           [  -0.034930,    0.034497,    0.052319]
  <i|r^2|0> [a.u.]:                    [   0.072081,    0.392211,   -0.035771]

  V1^2 = 0.9051, V2^2 = 0.0949

  Important amplitudes:
     core i     occ j      vir a      vir b          v   
    ------------------------------------------------------
     5 (A) A              28 (A) A                 0.4809
     5 (A) B              28 (A) B                 0.4809
    ------------------------------------------------------
  ----------------------------------------------------------------------------


  Excited state 15 (A)                                             [converged]
  ----------------------------------------------------------------------------
  Term symbol:  16 (-) A                                    R^2 =  1.16313e-12

  Total energy:                                           -424.4792946108 a.u.
  Excitation energy:                                             317.835889 eV

  Osc. strength:                                                      0.000000
  Trans. dip. moment [a.u.]:           [  -0.000000,   -0.000000,    0.000000]
  <i|r^2|0> [a.u.]:                    [   0.000000,   -0.000000,    0.000000]

  V1^2 = 0.8985, V2^2 = 0.1015

  Important amplitudes:
     core i     occ j      vir a      vir b          v   
    ------------------------------------------------------
     5 (A) B              29 (A) B                 0.5663
     5 (A) A              29 (A) A                -0.5663
    ------------------------------------------------------
  ----------------------------------------------------------------------------


  Excited state 16 (A)                                             [converged]
  ----------------------------------------------------------------------------
  Term symbol:  17 (-) A                                    R^2 =  3.37722e-12

  Total energy:                                           -424.4506751117 a.u.
  Excitation energy:                                             318.614665 eV

  Osc. strength:                                                      0.015928
  Trans. dip. moment [a.u.]:           [  -0.014667,   -0.039350,    0.016643]
  <i|r^2|0> [a.u.]:                    [   0.043136,   -0.428108,    0.002626]

  V1^2 = 0.9007, V2^2 = 0.0993

  Important amplitudes:
     core i     occ j      vir a      vir b          v   
    ------------------------------------------------------
     5 (A) A              29 (A) A                 0.6115
     5 (A) B              29 (A) B                 0.6115
    ------------------------------------------------------
  ----------------------------------------------------------------------------


  Excited state 17 (A)                                             [converged]
  ----------------------------------------------------------------------------
  Term symbol:  18 (-) A                                    R^2 =  5.08021e-09

  Total energy:                                           -423.9704042305 a.u.
  Excitation energy:                                             331.683501 eV

  Osc. strength:                                                      0.000000
  Trans. dip. moment [a.u.]:           [   0.000000,   -0.000000,    0.000000]
  <i|r^2|0> [a.u.]:                    [  -0.000000,   -0.000000,   -0.000000]

  V1^2 = 0.8743, V2^2 = 0.1257

  Important amplitudes:
     core i     occ j      vir a      vir b          v   
    ------------------------------------------------------
     5 (A) B              30 (A) B                -0.5954
     5 (A) A              30 (A) A                 0.5954
    ------------------------------------------------------
  ----------------------------------------------------------------------------


  Excited state 18 (A)                                             [converged]
  ----------------------------------------------------------------------------
  Term symbol:  19 (-) A                                    R^2 =  1.05609e-08

  Total energy:                                           -423.9635559313 a.u.
  Excitation energy:                                             331.869852 eV

  Osc. strength:                                                      0.008255
  Trans. dip. moment [a.u.]:           [  -0.016912,    0.011602,    0.024386]
  <i|r^2|0> [a.u.]:                    [   0.034121,    0.131473,   -0.008762]

  V1^2 = 0.8728, V2^2 = 0.1272

  Important amplitudes:
     core i     occ j      vir a      vir b          v   
    ------------------------------------------------------
     5 (A) A              30 (A) A                 0.6106
     5 (A) B              30 (A) B                 0.6106
    ------------------------------------------------------
  ----------------------------------------------------------------------------


  Excited state 19 (A)                                         [not converged]
  ----------------------------------------------------------------------------
  Term symbol:  20 (-) A                                    R^2 =  2.52837e-04

  Total energy:                                           -423.9414098651 a.u.
  Excitation energy:                                             332.472477 eV


  V1^2 = 0.8691, V2^2 = 0.1309

  Important amplitudes:
     core i     occ j      vir a      vir b          v   
    ------------------------------------------------------
     5 (A) B              32 (A) B                -0.6398
     5 (A) A              32 (A) A                 0.6398
    ------------------------------------------------------
  ----------------------------------------------------------------------------


  Excited state 20 (A)                                         [not converged]
  ----------------------------------------------------------------------------
  Term symbol:  21 (-) A                                    R^2 =  5.49974e-04

  Total energy:                                           -423.9357165806 a.u.
  Excitation energy:                                             332.627400 eV


  V1^2 = 0.8679, V2^2 = 0.1321

  Important amplitudes:
     core i     occ j      vir a      vir b          v   
    ------------------------------------------------------
     5 (A) A              32 (A) A                 0.6249
     5 (A) B              32 (A) B                 0.6249
    ------------------------------------------------------
  ----------------------------------------------------------------------------


--------------------------------------------------------------------------------
  Time of ADC calculation:  CPU 3175.11 s  wall 1924.48 s
================================================================================
 
 --------------------------------------------------------------
 
                    Orbital Energies (a.u.)
 --------------------------------------------------------------
 
 Alpha MOs
 -- Occupied --
-26.566 -26.537 -26.535 -25.946 -11.747  -1.995  -1.888  -1.855
 -1.206  -1.135  -1.058  -1.053  -1.001  -0.881  -0.879  -0.855
 -0.836  -0.821  -0.315  -0.315  -0.312
 -- Virtual --
 -0.030   0.306   0.380   0.396   0.552   0.595   0.646   0.708
  1.170   1.199   1.204   1.305   1.307   1.398   1.466   1.470
  1.480   1.481   1.505   1.528   1.618   1.763   1.775   1.847
  1.864   1.895   1.954   1.961   1.987   2.062   2.079   2.180
  2.197   2.214   2.298   2.310   2.426   2.426   2.439   2.441
  2.602   2.850   2.870   2.916   3.193   3.243   3.425   3.444
  3.519   4.167   4.503   4.896   5.023   5.781
 
 Beta MOs
 -- Occupied --
-26.566 -26.537 -26.535 -25.946 -11.747  -1.995  -1.888  -1.855
 -1.206  -1.135  -1.058  -1.053  -1.001  -0.881  -0.879  -0.855
 -0.836  -0.821  -0.315  -0.315  -0.312
 -- Virtual --
 -0.030   0.306   0.380   0.396   0.552   0.595   0.646   0.708
  1.170   1.199   1.204   1.305   1.307   1.398   1.466   1.470
  1.480   1.481   1.505   1.528   1.618   1.763   1.775   1.847
  1.864   1.895   1.954   1.961   1.987   2.062   2.079   2.180
  2.197   2.214   2.298   2.310   2.426   2.426   2.439   2.441
  2.602   2.850   2.870   2.916   3.193   3.243   3.425   3.444
  3.519   4.167   4.503   4.896   5.023   5.781
 --------------------------------------------------------------
 
          Ground-State Mulliken Net Atomic Charges

     Atom                 Charge (a.u.)    Spin (a.u.)
  --------------------------------------------------------
      1 C                     1.110526       0.000000
      2 F                    -0.082117       0.000000
      3 F                    -0.030710       0.000000
      4 F                    -0.890083       0.000000
      5 F                    -0.107616       0.000000
  --------------------------------------------------------
  Sum of atomic charges =     0.000000
  Sum of spin   charges =     0.000000

 -----------------------------------------------------------------
                    Cartesian Multipole Moments
 -----------------------------------------------------------------
    Charge (ESU x 10^10)
                 0.0000
    Dipole Moment (Debye)
         X       3.2840      Y      10.4390      Z      -3.3663
       Tot      11.4494
    Quadrupole Moments (Debye-Ang)
        XX     -28.3659     XY      -3.2403     YY      15.7817
        XZ       3.6152     YZ      -3.6944     ZZ     -24.1254
    Octopole Moments (Debye-Ang^2)
       XXX      57.7184    XXY     -52.6543    XYY      -0.9776
       YYY     -32.2377    XXZ      -4.7941    XYZ       2.2353
       YYZ      -8.2398    XZZ      18.1075    YZZ     -52.1434
       ZZZ      -2.5705
    Hexadecapole Moments (Debye-Ang^3)
      XXXX    -157.1276   XXXY     103.8519   XXYY    -162.5204
      XYYY      44.3197   YYYY    -479.2809   XXXZ      10.9330
      XXYZ       2.4772   XYYZ       2.6681   YYYZ     -11.1344
      XXZZ     -39.3492   XYZZ      33.4383   YYZZ    -156.4428
      XZZZ       6.9076   YZZZ      12.9667   ZZZZ     -79.4902
 -----------------------------------------------------------------
Archival summary:
1\1\tp-linux1\SP\HF\6-31G*\41\thomas\FriMar1707:29:412017FriMar1707:29:412017\0\\#,HF,6-31G*,\\0,1\C\F,1,1.16662\F,1,1.21083,2,119.853\F,1,1.22381,2,119.045,3,-152.868,0\F,1,2.66465,2,85.0183,3,-72.8103,0\\HF=-435.361854\\@

 Total job time:  1928.46s(wall), 3185.66s(cpu) 
 Fri Mar 17 07:29:41 2017

        *************************************************************
        *                                                           *
        *  Thank you very much for using Q-Chem.  Have a nice day.  *
        *                                                           *
        *************************************************************


0 sent ACK to 0 
now end server 0 ... 
cleanup process ... done
