
Running Job 1 of 2 ddtraj4t3.inp
qchem ddtraj4t3.inp_14922.0 /scratch/qchem/qchem14922/ 1
/mnt/software/qchem/bin/mpi/mpirun_qchem -machinefile /mnt/software/qchem/bin/mpi/machines -np 1 /mnt/software/qchem/exe/qcprog.exe ddtraj4t3.inp_14922.0 /scratch/qchem/qchem14922/

Process 0 of 1 is on tp-linux1 - thread support 0
initial socket setup ...start
initial socket setup ...done 
now start server 0 ... 

cmd = ssh tp-linux1 /mnt/software/qchem/bin/get_hostid 256328320 > /scratch/qchem/qchem14922/lic.dat
                  Welcome to Q-Chem
     A Quantum Leap Into The Future Of Chemistry


 Q-Chem 4.3, Q-Chem, Inc., Pleasanton, CA (2015)

 Y. Shao,  Z. Gan,  E. Epifanovsky,  A. T. B. Gilbert,  M. Wormit,  
 J. Kussmann,  A. W. Lange,  A. Behn,  J. Deng,  X. Feng,  D. Ghosh,  
 M. Goldey,  P. R. Horn,  L. D. Jacobson,  I. Kaliman,  R. Z. Khaliullin,  
 T. Kus,  A. Landau,  J. Liu,  E. I. Proynov,  Y. M. Rhee,  R. M. Richard,  
 M. A. Rohrdanz,  R. P. Steele,  E. J. Sundstrom,  H. L. Woodcock III,  
 P. M. Zimmerman,  D. Zuev,  B. Albrecht,  E. Alguire,  B. Austin,  
 S. A. Baeppler,  G. J. O. Beran,  Y. A. Bernard,  E. Berquist,  
 K. Brandhorst,  K. B. Bravaya,  S. T. Brown,  D. Casanova,  C.-M. Chang,  
 Y. Chen,  S. H. Chien,  K. D. Closser,  D. L. Crittenden,  M. Diedenhofen,  
 R. A. DiStasio Jr.,  H. Do,  A. D. Dutoi,  R. G. Edgar,  P.-T. Fang,  
 S. Fatehi,  Q. Feng,  L. Fusti-Molnar,  A. Ghysels,  
 A. Golubeva-Zadorozhnaya,  J. Gomes,  A. Gunina,  M. W. D. Hanson-Heine,  
 P. H. P. Harbach,  A. W. Hauser,  E. G. Hohenstein,  Z. C. Holden,  K. Hui,  
 T.-C. Jagau,  H. Ji,  B. Kaduk,  K. Khistyaev,  Jaehoon Kim,  Jihan Kim,  
 R. A. King,  P. Klunzinger,  D. Kosenkov,  T. Kowalczyk,  C. M. Krauter,  
 K. U. Lao,  A. Laurent,  K. V. Lawler,  S. Lehtola,  S. V. Levchenko,  
 C. Y. Lin,  Y.-S. Lin,  F. Liu,  E. Livshits,  R. C. Lochan,  A. Luenser,  
 P. Manohar,  S. F. Manzer,  S.-P. Mao,  N. Mardirossian,  A. V. Marenich,  
 L. A. Martinez-Martinez,  S. A. Maurer,  N. J. Mayhall,  K. Nanda,  
 C. M. Oana,  R. Olivares-Amaya,  D. P. O'Neill,  J. A. Parkhill,  
 T. M. Perrine,  R. Peverati,  P. A. Pieniazek,  F. Plasser,  A. Prociuk,  
 D. R. Rehn,  E. Rosta,  N. J. Russ,  N. Sergueev,  S. M. Sharada,  
 S. Sharma,  D. W. Small,  A. Sodt,  T. Stauch,  T. Stein,  D. Stuck,  
 Y.-C. Su,  A. J. W. Thom,  T. Tsuchimochi,  L. Vogt,  O. Vydrov,  T. Wang,  
 M. A. Watson,  J. Wenzel,  A. White,  C. F. Williams,  V. Vanovschi,  
 S. Yeganeh,  S. R. Yost,  Z.-Q. You,  I. Y. Zhang,  X. Zhang,  Y. Zhao,  
 B. R. Brooks,  G. K. L. Chan,  D. M. Chipman,  C. J. Cramer,  
 W. A. Goddard III,  M. S. Gordon,  W. J. Hehre,  A. Klamt,  
 H. F. Schaefer III,  M. W. Schmidt,  C. D. Sherrill,  D. G. Truhlar,  
 A. Warshel,  X. Xu,  A. Aspuru-Guzik,  R. Baer,  A. T. Bell,  N. A. Besley,  
 J.-D. Chai,  A. Dreuw,  B. D. Dunietz,  T. R. Furlani,  S. R. Gwaltney,  
 C.-P. Hsu,  Y. Jung,  J. Kong,  D. S. Lambrecht,  W. Liang,  C. Ochsenfeld,  
 V. A. Rassolov,  L. V. Slipchenko,  J. E. Subotnik,  T. Van Voorhis,  
 J. M. Herbert,  A. I. Krylov,  P. M. W. Gill,  M. Head-Gordon

 Contributors to earlier versions of Q-Chem not listed above: 
 R. D. Adamson,  J. Baker,  E. F. C. Byrd,  A. K. Chakraborty,  C.-L. Cheng,  
 H. Dachsel,  R. J. Doerksen,  G. Hawkins,  A. Heyden,  S. Hirata,  
 G. Kedziora,  F. J. Keil,  C. Kelley,  P. P. Korambath,  W. Kurlancheek,  
 A. M. Lee,  M. S. Lee,  D. Liotard,  I. Lotan,  P. E. Maslen,  N. Nair,  
 D. Neuhauser,  R. Olson,  B. Peters,  J. Ritchie,  N. E. Schultz,  
 N. Shenvi,  A. C. Simmonett,  K. S. Thanthiriwatte,  Q. Wu,  W. Zhang

 Please cite Q-Chem as follows:
 Y. Shao et al., Mol. Phys. 113, 184-215 (2015)
 DOI: 10.1080/00268976.2014.952696

 Q-Chem 4.3.0 for Intel X86 Linux

 Parts of Q-Chem use Armadillo 5.200.1 (Boston Tea Smuggler).
 http://arma.sourceforge.net/

 Q-Chem begins on Mon Mar 20 00:43:12 2017  

Host: 
0

     Scratch files written to /scratch/qchem/qchem14922//
 Nov1815 1189b_ 19540  19532 5443   
 Parallel job on  1  processors
Processing $rem in /mnt/software/qchem/config/preferences.
 MEM_TOTAL  2000 

Checking the input file for inconsistencies... 	...done.

--------------------------------------------------------------
User input:
--------------------------------------------------------------
$comment
XAS calculation for the 2b valence excited for water using cvs-adc(2)-x + 6-311+G* basis set
job 1 - determination of HF orbitals
$end

$molecule
0 1
6  -0.679165  2.396205  -0.040868
9  0.600702  2.344299  0.003135
9  -1.133516  3.288283  0.787153
9  -1.138916  1.1769  0.431709
9  -1.129467  2.553584  -1.195182
$end

$rem
jobtype      sp
sym_ignore true
exchange     hf
basis        6-31G*
unrestricted true
$end

--------------------------------------------------------------
 ----------------------------------------------------------------
             Standard Nuclear Orientation (Angstroms)
    I     Atom           X                Y                Z
 ----------------------------------------------------------------
    1      C      -0.6791650000     2.3962050000    -0.0408680000
    2      F       0.6007020000     2.3442990000     0.0031350000
    3      F      -1.1335160000     3.2882830000     0.7871530000
    4      F      -1.1389160000     1.1769000000     0.4317090000
    5      F      -1.1294670000     2.5535840000    -1.1951820000
 ----------------------------------------------------------------
 Nuclear Repulsion Energy =   208.6780129853 hartrees
 There are       21 alpha and       21 beta electrons
 Requested basis set is 6-31G(d)
 There are 20 shells and 75 basis functions

 Total QAlloc Memory Limit   2000 MB
 Mega-Array Size        61 MB
 MEM_STATIC part        62 MB

                       Distance Matrix (Angstroms)
             C (  1)   F (  2)   F (  3)   F (  4)
   F (  2)  1.281675
   F (  3)  1.299175  2.124453
   F (  4)  1.386147  2.138403  2.141100
   F (  5)  1.248992  2.115006  2.114108  2.131226
 
 tim1(1): 
  0.000000000000000E+000
 tim1(2): 
  0.000000000000000E+000
 A cutoff of  1.0D-08 yielded    204 shell pairs
 There are      2979 function pairs
 
 -------------------------------------------------------
 OpenMP Integral Computing Module                       
 Release: version 1.0, May 2013, Q-Chem Inc. Pittsburgh 
 -------------------------------------------------------
 Integral Job Info:
 Integral job number is                      11
 Integral operator is                         1
 short-range coefficients                     0
 long-range coefficients              100000000
 Omega coefficients                           0
 if combine SR and LR in K                    0
 Integral screening is                        0
 Integral computing path is                   2
 max size of driver memory is            800000
 size of driver memory is                593474
 size of scratch memory is              2260544
 max col of scratch BK array               1296
 max len of scratch array in speh3          155
 max len of scratch index in speh4           18
 max int batch size is                      520
 min int batch size is                       52
 fixed nKL is                                52
 max L of basis functions is                  2
 order of int derivative is                   0
 number of shells is                         20
 number of basis is                          75
 number of cartesian basis is                75
 number of contracted shell pairs           204
 number of primitive shell pairs            985
 maxK2 (contraction) of shell pair           36
 max number of K2 of shell pair               1
 max number of CS2 of shell pair             29
 max number of PS2 of shell pair            180
 mem total for path MDJ                   21832
 -------------------------------------------------------
 Smallest overlap matrix eigenvalue = 1.75E-03

 Scale SEOQF with 1.000000e+00/1.000000e-01/1.000000e+00

 Standard Electronic Orientation quadrupole field applied
 Nucleus-field energy     =     0.0000000110 hartrees
 Guess from superposition of atomic densities
 Warning:  Energy on first SCF cycle will be non-variational
 An unrestricted Hartree-Fock SCF calculation will be
 performed using Pulay DIIS extrapolation
 SCF converges when DIIS error is below 1.0E-05
 using 8 threads for integral computing 
 ---------------------------------------
  Cycle       Energy         DIIS Error
 ---------------------------------------
    1    -436.6435573373      8.99E-02
    2    -435.4758089324      1.72E-02
    3    -435.5947353179      9.62E-03
    4    -435.6354405933      9.88E-04
    5    -435.6361600968      3.11E-04
    6    -435.6362582425      6.13E-05
    7    -435.6362624787      2.71E-05
    8    -435.6362629285      3.51E-06 Convergence criterion met
 ---------------------------------------
 <S^2> = 0.0000
 SCF time:  CPU 9.59 s  wall 5.75 s
 SCF   energy in the final basis set = -435.6362629285
 Total energy in the final basis set = -435.6362629285
 
 --------------------------------------------------------------
 
                    Orbital Energies (a.u.)
 --------------------------------------------------------------
 
 Alpha MOs
 -- Occupied --
-26.399 -26.385 -26.377 -26.337 -11.606  -1.824  -1.711  -1.688
 -1.629  -1.009  -0.903  -0.897  -0.883  -0.763  -0.760  -0.721
 -0.711  -0.684  -0.679  -0.658  -0.655
 -- Virtual --
  0.384   0.434   0.448   0.471   0.661   0.680   0.692   0.705
  1.283   1.293   1.298   1.299   1.310   1.414   1.565   1.570
  1.601   1.611   1.615   1.654   1.663   1.685   1.767   1.833
  1.857   2.078   2.082   2.088   2.120   2.127   2.168   2.237
  2.256   2.294   2.303   2.328   2.379   2.397   2.400   2.588
  2.835   2.955   3.019   3.166   3.169   3.349   3.433   3.438
  3.473   4.583   4.721   4.777   4.873   6.300
 
 Beta MOs
 -- Occupied --
-26.399 -26.385 -26.377 -26.337 -11.606  -1.824  -1.711  -1.688
 -1.629  -1.009  -0.903  -0.897  -0.883  -0.763  -0.760  -0.721
 -0.711  -0.684  -0.679  -0.658  -0.655
 -- Virtual --
  0.384   0.434   0.448   0.471   0.661   0.680   0.692   0.705
  1.283   1.293   1.298   1.299   1.310   1.414   1.565   1.570
  1.601   1.611   1.615   1.654   1.663   1.685   1.767   1.833
  1.857   2.078   2.082   2.088   2.120   2.127   2.168   2.237
  2.256   2.294   2.303   2.328   2.379   2.397   2.400   2.588
  2.835   2.955   3.019   3.166   3.169   3.349   3.433   3.438
  3.473   4.583   4.721   4.777   4.873   6.300
 --------------------------------------------------------------
 
          Ground-State Mulliken Net Atomic Charges

     Atom                 Charge (a.u.)    Spin (a.u.)
  --------------------------------------------------------
      1 C                     1.303168       0.000000
      2 F                    -0.305382       0.000000
      3 F                    -0.324340       0.000000
      4 F                    -0.404987       0.000000
      5 F                    -0.268459       0.000000
  --------------------------------------------------------
  Sum of atomic charges =     0.000000
  Sum of spin   charges =     0.000000

 -----------------------------------------------------------------
                    Cartesian Multipole Moments
 -----------------------------------------------------------------
    Charge (ESU x 10^10)
                 0.0000
    Dipole Moment (Debye)
         X       0.2296      Y       0.6214      Z      -0.5364
       Tot       0.8524
    Quadrupole Moments (Debye-Ang)
        XX     -25.1235     XY      -0.0809     YY     -22.4212
        XZ       0.5359     YZ      -1.1474     ZZ     -24.6594
    Octopole Moments (Debye-Ang^2)
       XXX      51.0057    XXY     -58.2977    XYY      17.0108
       YYY    -166.9541    XXZ      -0.6177    XYZ       1.1090
       YYZ      -3.6302    XZZ      17.8223    YZZ     -58.2183
       ZZZ       0.3316
    Hexadecapole Moments (Debye-Ang^3)
      XXXX    -146.0549   XXXY     118.4414   XXYY    -175.0342
      XYYY     122.7036   YYYY    -874.1164   XXXZ       1.2118
      XXYZ      -1.1642   XYYZ       3.2805   YYYZ     -13.1631
      XXZZ     -38.2262   XYZZ      41.9069   YYZZ    -163.3663
      XZZZ       0.2199   YZZZ       1.1988   ZZZZ     -75.6853
 -----------------------------------------------------------------
Archival summary:
1\1\tp-linux1\SP\HF\6-31G*\41\thomas\MonMar2000:43:182017MonMar2000:43:182017\0\\#,HF,6-31G*,\\0,1\C\F,1,1.24899\F,1,1.28167,2,113.382\F,1,1.29918,2,112.112,3,-126.393,0\F,1,1.38615,2,107.839,3,117.648,0\\HF=-435.636263\\@

 Total job time:  6.07s(wall), 11.34s(cpu) 
 Mon Mar 20 00:43:18 2017

        *************************************************************
        *                                                           *
        *  Thank you very much for using Q-Chem.  Have a nice day.  *
        *                                                           *
        *************************************************************


0 sent ACK to 0 
now end server 0 ... 
cleanup process ... done

Running Job 2 of 2 ddtraj4t3.inp
qchem ddtraj4t3.inp_14922.1 /scratch/qchem/qchem14922/ 1
/mnt/software/qchem/bin/mpi/mpirun_qchem -machinefile /mnt/software/qchem/bin/mpi/machines -np 1 /mnt/software/qchem/exe/qcprog.exe ddtraj4t3.inp_14922.1 /scratch/qchem/qchem14922/

Process 0 of 1 is on tp-linux1 - thread support 0
initial socket setup ...start
initial socket setup ...done 
now start server 0 ... 

cmd = ssh tp-linux1 /mnt/software/qchem/bin/get_hostid 2136816563 > /scratch/qchem/qchem14922/lic.dat
                  Welcome to Q-Chem
     A Quantum Leap Into The Future Of Chemistry


 Q-Chem 4.3, Q-Chem, Inc., Pleasanton, CA (2015)

 Y. Shao,  Z. Gan,  E. Epifanovsky,  A. T. B. Gilbert,  M. Wormit,  
 J. Kussmann,  A. W. Lange,  A. Behn,  J. Deng,  X. Feng,  D. Ghosh,  
 M. Goldey,  P. R. Horn,  L. D. Jacobson,  I. Kaliman,  R. Z. Khaliullin,  
 T. Kus,  A. Landau,  J. Liu,  E. I. Proynov,  Y. M. Rhee,  R. M. Richard,  
 M. A. Rohrdanz,  R. P. Steele,  E. J. Sundstrom,  H. L. Woodcock III,  
 P. M. Zimmerman,  D. Zuev,  B. Albrecht,  E. Alguire,  B. Austin,  
 S. A. Baeppler,  G. J. O. Beran,  Y. A. Bernard,  E. Berquist,  
 K. Brandhorst,  K. B. Bravaya,  S. T. Brown,  D. Casanova,  C.-M. Chang,  
 Y. Chen,  S. H. Chien,  K. D. Closser,  D. L. Crittenden,  M. Diedenhofen,  
 R. A. DiStasio Jr.,  H. Do,  A. D. Dutoi,  R. G. Edgar,  P.-T. Fang,  
 S. Fatehi,  Q. Feng,  L. Fusti-Molnar,  A. Ghysels,  
 A. Golubeva-Zadorozhnaya,  J. Gomes,  A. Gunina,  M. W. D. Hanson-Heine,  
 P. H. P. Harbach,  A. W. Hauser,  E. G. Hohenstein,  Z. C. Holden,  K. Hui,  
 T.-C. Jagau,  H. Ji,  B. Kaduk,  K. Khistyaev,  Jaehoon Kim,  Jihan Kim,  
 R. A. King,  P. Klunzinger,  D. Kosenkov,  T. Kowalczyk,  C. M. Krauter,  
 K. U. Lao,  A. Laurent,  K. V. Lawler,  S. Lehtola,  S. V. Levchenko,  
 C. Y. Lin,  Y.-S. Lin,  F. Liu,  E. Livshits,  R. C. Lochan,  A. Luenser,  
 P. Manohar,  S. F. Manzer,  S.-P. Mao,  N. Mardirossian,  A. V. Marenich,  
 L. A. Martinez-Martinez,  S. A. Maurer,  N. J. Mayhall,  K. Nanda,  
 C. M. Oana,  R. Olivares-Amaya,  D. P. O'Neill,  J. A. Parkhill,  
 T. M. Perrine,  R. Peverati,  P. A. Pieniazek,  F. Plasser,  A. Prociuk,  
 D. R. Rehn,  E. Rosta,  N. J. Russ,  N. Sergueev,  S. M. Sharada,  
 S. Sharma,  D. W. Small,  A. Sodt,  T. Stauch,  T. Stein,  D. Stuck,  
 Y.-C. Su,  A. J. W. Thom,  T. Tsuchimochi,  L. Vogt,  O. Vydrov,  T. Wang,  
 M. A. Watson,  J. Wenzel,  A. White,  C. F. Williams,  V. Vanovschi,  
 S. Yeganeh,  S. R. Yost,  Z.-Q. You,  I. Y. Zhang,  X. Zhang,  Y. Zhao,  
 B. R. Brooks,  G. K. L. Chan,  D. M. Chipman,  C. J. Cramer,  
 W. A. Goddard III,  M. S. Gordon,  W. J. Hehre,  A. Klamt,  
 H. F. Schaefer III,  M. W. Schmidt,  C. D. Sherrill,  D. G. Truhlar,  
 A. Warshel,  X. Xu,  A. Aspuru-Guzik,  R. Baer,  A. T. Bell,  N. A. Besley,  
 J.-D. Chai,  A. Dreuw,  B. D. Dunietz,  T. R. Furlani,  S. R. Gwaltney,  
 C.-P. Hsu,  Y. Jung,  J. Kong,  D. S. Lambrecht,  W. Liang,  C. Ochsenfeld,  
 V. A. Rassolov,  L. V. Slipchenko,  J. E. Subotnik,  T. Van Voorhis,  
 J. M. Herbert,  A. I. Krylov,  P. M. W. Gill,  M. Head-Gordon

 Contributors to earlier versions of Q-Chem not listed above: 
 R. D. Adamson,  J. Baker,  E. F. C. Byrd,  A. K. Chakraborty,  C.-L. Cheng,  
 H. Dachsel,  R. J. Doerksen,  G. Hawkins,  A. Heyden,  S. Hirata,  
 G. Kedziora,  F. J. Keil,  C. Kelley,  P. P. Korambath,  W. Kurlancheek,  
 A. M. Lee,  M. S. Lee,  D. Liotard,  I. Lotan,  P. E. Maslen,  N. Nair,  
 D. Neuhauser,  R. Olson,  B. Peters,  J. Ritchie,  N. E. Schultz,  
 N. Shenvi,  A. C. Simmonett,  K. S. Thanthiriwatte,  Q. Wu,  W. Zhang

 Please cite Q-Chem as follows:
 Y. Shao et al., Mol. Phys. 113, 184-215 (2015)
 DOI: 10.1080/00268976.2014.952696

 Q-Chem 4.3.0 for Intel X86 Linux

 Parts of Q-Chem use Armadillo 5.200.1 (Boston Tea Smuggler).
 http://arma.sourceforge.net/

 Q-Chem begins on Mon Mar 20 00:43:27 2017  

Host: 
0

     Scratch files written to /scratch/qchem/qchem14922//
 Nov1815 1189b_ 19540  19532 5443   
 Parallel job on  1  processors
Processing $rem in /mnt/software/qchem/config/preferences.
 MEM_TOTAL  2000 

Checking the input file for inconsistencies... 	...done.

--------------------------------------------------------------
User input:
--------------------------------------------------------------

$comment
job3 - cvs-adc(2) calculation
$end

$molecule
read
$end

$rem
mem_total 3000
mem_static 1500
sym_ignore true
scf_guess read
method cvs-adc(2)
basis 6-31G*
ee_singlets 20
cc_rest_occ 5                  !only excitations from the lowest N orbitals
unrestricted  true
max_scf_cycles 200
$end
--------------------------------------------------------------
 ----------------------------------------------------------------
             Standard Nuclear Orientation (Angstroms)
    I     Atom           X                Y                Z
 ----------------------------------------------------------------
    1      C      -0.6791650000     2.3962050000    -0.0408680000
    2      F       0.6007020000     2.3442990000     0.0031350000
    3      F      -1.1335160000     3.2882830000     0.7871530000
    4      F      -1.1389160000     1.1769000000     0.4317090000
    5      F      -1.1294670000     2.5535840000    -1.1951820000
 ----------------------------------------------------------------
 Nuclear Repulsion Energy =   208.6780129853 hartrees
 There are       21 alpha and       21 beta electrons
 Requested basis set is 6-31G(d)
 There are 20 shells and 75 basis functions

 Total QAlloc Memory Limit   3000 MB
 Mega-Array Size      1467 MB
 MEM_STATIC part      1500 MB

                       Distance Matrix (Angstroms)
             C (  1)   F (  2)   F (  3)   F (  4)
   F (  2)  1.281675
   F (  3)  1.299175  2.124453
   F (  4)  1.386147  2.138403  2.141100
   F (  5)  1.248992  2.115006  2.114108  2.131226
 
 tim1(1): 
  3.999999999999997E-003
 tim1(2): 
  0.000000000000000E+000
 A cutoff of  1.0D-11 yielded    204 shell pairs
 There are      2979 function pairs
 
 -------------------------------------------------------
 OpenMP Integral Computing Module                       
 Release: version 1.0, May 2013, Q-Chem Inc. Pittsburgh 
 -------------------------------------------------------
 Integral Job Info:
 Integral job number is                      11
 Integral operator is                         1
 short-range coefficients                     0
 long-range coefficients              100000000
 Omega coefficients                           0
 if combine SR and LR in K                    0
 Integral screening is                        0
 Integral computing path is                   2
 max size of driver memory is            800000
 size of driver memory is                593474
 size of scratch memory is              2260544
 max col of scratch BK array               1296
 max len of scratch array in speh3          155
 max len of scratch index in speh4           18
 max int batch size is                      520
 min int batch size is                       52
 fixed nKL is                                52
 max L of basis functions is                  2
 order of int derivative is                   0
 number of shells is                         20
 number of basis is                          75
 number of cartesian basis is                75
 number of contracted shell pairs           204
 number of primitive shell pairs           1074
 maxK2 (contraction) of shell pair           36
 max number of K2 of shell pair               1
 max number of CS2 of shell pair             37
 max number of PS2 of shell pair            222
 mem total for path MDJ                   21832
 -------------------------------------------------------
 Smallest overlap matrix eigenvalue = 1.75E-03

 Scale SEOQF with 1.000000e+00/1.000000e-01/1.000000e+00

 Standard Electronic Orientation quadrupole field applied
 Nucleus-field energy     =     0.0000000110 hartrees
 Guess MOs from SCF MO coefficient file
 Reading MOs from coefficient file
 Reading MOs from coefficient file
 An unrestricted Hartree-Fock SCF calculation will be
 performed using Pulay DIIS extrapolation
 SCF converges when DIIS error is below 1.0E-08
 using 8 threads for integral computing 
 ---------------------------------------
  Cycle       Energy         DIIS Error
 ---------------------------------------
    1    -435.6362629961      7.92E-07
    2    -435.6362629962      3.40E-07
    3    -435.6362629964      1.63E-07
    4    -435.6362629964      1.71E-08
    5    -435.6362629964      4.52E-09 Convergence criterion met
 ---------------------------------------
 <S^2> = 0.0000
 SCF time:  CPU 4.46 s  wall 1.30 s
 SCF   energy in the final basis set = -435.6362629964
 Total energy in the final basis set = -435.6362629964
================================================================================
|                                                                              |
|                                 A D C  M A N                                 |
|                                                                              |
 ------------------------------------------------------------------------------ 
|                                                                              |
| Components:                                                                  |
|                                                                              |
| - libvmm - 1.2-release                                                       |
|   Authors:                                                                   |
|   Evgeny Epifanovsky, Ilya Kaliman                                           |
|                                                                              |
| - libtensor - 2.4-trunk                                                      |
|   Authors:                                                                   |
|   Evgeny Epifanovsky, Michael Wormit, Dmitry Zuev, Sam Manzer                |
|                                                                              |
| - libwfa - 1.1-beta                                                          |
|   Authors:                                                                   |
|   Felix Plasser, Stefanie Baeppler, Benjamin Thomitzni, Michael Wormit       |
|                                                                              |
| - libadc - 1.0-beta                                                          |
|   Authors:                                                                   |
|   Michael Wormit, Philipp H. P. Harbach, Caroline Krauter, Dirk Rehn,        |
|   Matthias Schneider, Jan Wenzel                                             |
|                                                                              |
| - adcman - 2.4-beta                                                          |
|   Authors:                                                                   |
|   Michael Wormit, Philipp H. P. Harbach, Caroline Krauter, Dirk Rehn,        |
|   Jan Wenzel, Andreas Dreuw                                                  |
|                                                                              |
| Authors of earlier versions of ADCMAN:                                       |
| Andreas Dreuw, Jan Hendrik Starcke, Dirk Rehn, Michael Wormit                |
|                                                                              |
================================================================================

 
 Alpha MOs, Unrestricted
 -- Occupied --                  
-26.399 -26.385 -26.377 -26.337 -11.606  -1.824  -1.711  -1.688
  1 A     2 A     3 A     4 A     5 A     6 A     7 A     8 A                  
 -1.629  -1.009  -0.903  -0.897  -0.883  -0.763  -0.760  -0.721
  9 A    10 A    11 A    12 A    13 A    14 A    15 A    16 A                  
 -0.711  -0.684  -0.679  -0.658  -0.655
 17 A    18 A    19 A    20 A    21 A                                          
 -- Virtual --                   
  0.384   0.434   0.448   0.471   0.661   0.680   0.692   0.705
 22 A    23 A    24 A    25 A    26 A    27 A    28 A    29 A                  
  1.283   1.293   1.298   1.299   1.310   1.414   1.565   1.570
 30 A    31 A    32 A    33 A    34 A    35 A    36 A    37 A                  
  1.601   1.611   1.615   1.654   1.663   1.685   1.767   1.833
 38 A    39 A    40 A    41 A    42 A    43 A    44 A    45 A                  
  1.857   2.078   2.082   2.088   2.120   2.127   2.168   2.237
 46 A    47 A    48 A    49 A    50 A    51 A    52 A    53 A                  
  2.256   2.294   2.303   2.328   2.379   2.397   2.400   2.588
 54 A    55 A    56 A    57 A    58 A    59 A    60 A    61 A                  
  2.835   2.955   3.019   3.166   3.169   3.349   3.433   3.438
 62 A    63 A    64 A    65 A    66 A    67 A    68 A    69 A                  
  3.473   4.583   4.721   4.777   4.873   6.300
 70 A    71 A    72 A    73 A    74 A    75 A                                  
 
 Beta MOs, Unrestricted
 -- Occupied --                  
-26.399 -26.385 -26.377 -26.337 -11.606  -1.824  -1.711  -1.688
  1 A     2 A     3 A     4 A     5 A     6 A     7 A     8 A                  
 -1.629  -1.009  -0.903  -0.897  -0.883  -0.763  -0.760  -0.721
  9 A    10 A    11 A    12 A    13 A    14 A    15 A    16 A                  
 -0.711  -0.684  -0.679  -0.658  -0.655
 17 A    18 A    19 A    20 A    21 A                                          
 -- Virtual --                   
  0.384   0.434   0.448   0.471   0.661   0.680   0.692   0.705
 22 A    23 A    24 A    25 A    26 A    27 A    28 A    29 A                  
  1.283   1.293   1.298   1.299   1.310   1.414   1.565   1.570
 30 A    31 A    32 A    33 A    34 A    35 A    36 A    37 A                  
  1.601   1.611   1.615   1.654   1.663   1.685   1.767   1.833
 38 A    39 A    40 A    41 A    42 A    43 A    44 A    45 A                  
  1.857   2.078   2.082   2.088   2.120   2.127   2.168   2.237
 46 A    47 A    48 A    49 A    50 A    51 A    52 A    53 A                  
  2.256   2.294   2.303   2.328   2.379   2.397   2.400   2.588
 54 A    55 A    56 A    57 A    58 A    59 A    60 A    61 A                  
  2.835   2.955   3.019   3.166   3.169   3.349   3.433   3.438
 62 A    63 A    64 A    65 A    66 A    67 A    68 A    69 A                  
  3.473   4.583   4.721   4.777   4.873   6.300
 70 A    71 A    72 A    73 A    74 A    75 A                                  
 

--------------------------------------------------------------------------------
                                   HF Summary                                   
--------------------------------------------------------------------------------
  Energy:                                                 -435.6362629964 a.u.
  Dip. moment [a.u.]:                  [ -55.432372,  186.167229,    0.203685]
  Total dipole [Debye]:                                             493.721025
  <r^2> [a.u.]:                        [ 164.143622,  917.937426,   90.183872]
  Total <r^2> [a.u.]:                                              1172.264920
--------------------------------------------------------------------------------

--------------------------------------------------------------------------------
                                 MP(2) Summary                                  
--------------------------------------------------------------------------------
  Energy contribution:                                      -0.7990573692 a.u.
  Total energy:                                           -436.4353203656 a.u.
  Dip. moment [a.u.]:                  [ -55.422726,  186.192151,    0.183643]
  Total dipole [Debye]:                                             493.774688
  <r^2> [a.u.]:                        [ 164.056899,  918.079948,   90.129948]
  Total <r^2> [a.u.]:                                              1172.266794
--------------------------------------------------------------------------------
  Starting Davidson ... 
--------------------------------------------------------------------------------
   It NVec Conv  Avg. Norm  Max. Norm  Conv. states           Remark
--------------------------------------------------------------------------------
        20    0  2.114e-01  1.055e+00 11.2135 n n n n n n n n Guess.
    1   40    0  7.761e-02  1.022e+00 11.0268 n n n n n n n n 
    2   60    0  2.221e-02  3.148e-01 11.0250 n n n n n n n n 
    3   80    0  4.117e-03  5.198e-02 11.0249 n n n n n n n n 
    4  100    0  2.163e-03  2.636e-02 11.0249 n n n n n n n n 
    5   40    0  1.223e-03  1.593e-02 11.0249 n n n n n n n n Subspace collapsed.
    6   60    0  8.702e-04  1.034e-02 11.0249 n n n n n n n n 
    7   80    0  6.331e-04  9.181e-03 11.0249 n n n n n n n n 
    8  100    1  4.443e-04  7.279e-03 11.0249 y n n n n n n n 
    9   40    6  1.871e-04  2.916e-03 11.0249 y y y y y n y n Subspace collapsed.
   10   60    7  1.687e-04  2.473e-03 11.0249 y y y y y y y n 
   11   80   10  9.517e-05  1.326e-03 11.0249 y y y y y y y y 
   12  100   15  8.192e-05  1.373e-03 11.0249 y y y y y y y y 
   13   40   16  5.353e-05  9.337e-04 11.0249 y y y y y y y y Subspace collapsed.
   14   60   16  8.175e-05  1.482e-03 11.0249 y y y y y y y y 
   15   80   16  6.275e-05  1.119e-03 11.0249 y y y y y y y y 
   16  100   16  6.691e-05  1.243e-03 11.0249 y y y y y y y y 
   17   40   16  3.392e-05  6.423e-04 11.0249 y y y y y y y y Subspace collapsed.
   18   59   16  2.745e-05  5.161e-04 11.0249 y y y y y y y y 
   19   74   16  1.445e-05  2.702e-04 11.0249 y y y y y y y y 
   20   88   16  1.677e-05  3.200e-04 11.0249 y y y y y y y y 
   21  100   16  2.389e-05  4.625e-04 11.0249 y y y y y y y y 
   22   32   16  1.030e-05  1.989e-04 11.0249 y y y y y y y y Subspace collapsed.
   23   44   16  7.260e-06  1.332e-04 11.0249 y y y y y y y y 
   24   56   16  5.894e-06  1.070e-04 11.0249 y y y y y y y y 
   25   58   16  5.891e-06  1.068e-04 11.0249 y y y y y y y y 
   26   60   16  5.895e-06  1.069e-04 11.0249 y y y y y y y y 
   27   60   16  5.895e-06  1.069e-04 11.0249 y y y y y y y y 
   28   79   16  6.179e-06  1.129e-04 11.0249 y y y y y y y y 
   29   79   16  6.179e-06  1.129e-04 11.0249 y y y y y y y y 
   30   79   16  6.179e-06  1.129e-04 11.0249 y y y y y y y y 
   31   99   16  7.039e-06  1.367e-04 11.0249 y y y y y y y y 
   32  100   16  7.053e-06  1.370e-04 11.0249 y y y y y y y y 
   33   26   16  3.221e-06  6.239e-05 11.0249 y y y y y y y y Subspace collapsed.
   34   26   16  3.221e-06  6.239e-05 11.0249 y y y y y y y y 
   35   27   16  3.210e-06  6.219e-05 11.0249 y y y y y y y y 
   36   27   16  3.210e-06  6.219e-05 11.0249 y y y y y y y y 
   37   30   16  3.176e-06  6.151e-05 11.0249 y y y y y y y y 
   38   30   16  3.176e-06  6.151e-05 11.0249 y y y y y y y y 
   39   30   16  3.176e-06  6.151e-05 11.0249 y y y y y y y y 
   40   50   16  2.823e-06  5.496e-05 11.0249 y y y y y y y y 
   41   55   16  2.156e-06  4.211e-05 11.0249 y y y y y y y y 
   42   60   17  2.139e-06  4.190e-05 11.0249 y y y y y y y y 
   43   65   17  2.846e-06  5.591e-05 11.0249 y y y y y y y y 
   44   70   17  1.719e-06  3.377e-05 11.0249 y y y y y y y y 
   45   70   17  1.719e-06  3.377e-05 11.0249 y y y y y y y y 
   46   70   17  1.719e-06  3.377e-05 11.0249 y y y y y y y y 
   47   70   17  1.719e-06  3.377e-05 11.0249 y y y y y y y y 
   48   90   17  8.032e-07  1.571e-05 11.0249 y y y y y y y y 
   49   94   17  3.451e-07  6.600e-06 11.0249 y y y y y y y y 
   50   98   19  2.321e-07  4.470e-06 11.0249 y y y y y y y y 
   51  100   19  1.615e-07  3.130e-06 11.0249 y y y y y y y y 
   52   24   19  7.717e-08  1.494e-06 11.0249 y y y y y y y y Subspace collapsed.
   53   28   19  6.183e-08  1.180e-06 11.0249 y y y y y y y y 
   54   32   20  4.277e-08  8.181e-07 11.0249 y y y y y y y y Converged.
--------------------------------------------------------------------------------
  Davidson Summary: 
 ------------------------------------------------------------
  State  0: excitation energy =  11.0249 a.u.   (converged)
  State  1: excitation energy =  11.0975 a.u.   (converged)
  State  2: excitation energy =  11.1038 a.u.   (converged)
  State  3: excitation energy =  11.1279 a.u.   (converged)
  State  4: excitation energy =  11.1772 a.u.   (converged)
  State  5: excitation energy =  11.1788 a.u.   (converged)
  State  6: excitation energy =  11.2094 a.u.   (converged)
  State  7: excitation energy =  11.2686 a.u.   (converged)
  State  8: excitation energy =  11.4943 a.u.   (converged)
  State  9: excitation energy =  11.5227 a.u.   (converged)
  State 10: excitation energy =  11.5262 a.u.   (converged)
  State 11: excitation energy =  11.5300 a.u.   (converged)
  State 12: excitation energy =  11.5407 a.u.   (converged)
  State 13: excitation energy =  11.5453 a.u.   (converged)
  State 14: excitation energy =  11.5477 a.u.   (converged)
  State 15: excitation energy =  11.5642 a.u.   (converged)
  State 16: excitation energy =  12.1347 a.u.   (converged)
  State 17: excitation energy =  12.1357 a.u.   (converged)
  State 18: excitation energy =  12.1366 a.u.   (converged)
  State 19: excitation energy =  12.1374 a.u.   (converged)
 ------------------------------------------------------------


--------------------------------------------------------------------------------
                             Excited State Summary
--------------------------------------------------------------------------------

  Excited state  1 (A)                                             [converged]
  ----------------------------------------------------------------------------
  Term symbol:  2 (-) A                                     R^2 =  8.44849e-14

  Total energy:                                           -425.4103838231 a.u.
  Excitation energy:                                             300.003781 eV

  Osc. strength:                                                      0.000000
  Trans. dip. moment [a.u.]:           [  -0.000000,    0.000000,    0.000000]
  <i|r^2|0> [a.u.]:                    [   0.000000,    0.000000,   -0.000000]

  V1^2 = 0.9563, V2^2 = 0.0437

  Important amplitudes:
     core i     occ j      vir a      vir b          v   
    ------------------------------------------------------
     5 (A) B              22 (A) B                 0.6201
     5 (A) A              22 (A) A                -0.6201
    ------------------------------------------------------
  ----------------------------------------------------------------------------


  Excited state  2 (A)                                             [converged]
  ----------------------------------------------------------------------------
  Term symbol:  3 (-) A                                     R^2 =  7.77732e-14

  Total energy:                                           -425.3378601831 a.u.
  Excitation energy:                                             301.977249 eV

  Osc. strength:                                                      0.000000
  Trans. dip. moment [a.u.]:           [   0.000000,   -0.000000,   -0.000000]
  <i|r^2|0> [a.u.]:                    [  -0.000000,   -0.000000,    0.000000]

  V1^2 = 0.9559, V2^2 = 0.0441

  Important amplitudes:
     core i     occ j      vir a      vir b          v   
    ------------------------------------------------------
     5 (A) B              24 (A) B                 0.5760
     5 (A) A              24 (A) A                -0.5760
    ------------------------------------------------------
  ----------------------------------------------------------------------------


  Excited state  3 (A)                                             [converged]
  ----------------------------------------------------------------------------
  Term symbol:  4 (-) A                                     R^2 =  2.71949e-14

  Total energy:                                           -425.3314976144 a.u.
  Excitation energy:                                             302.150384 eV

  Osc. strength:                                                      0.121350
  Trans. dip. moment [a.u.]:           [   0.042693,    0.116521,   -0.031516]
  <i|r^2|0> [a.u.]:                    [  -0.115640,    1.055354,   -0.000959]

  V1^2 = 0.9498, V2^2 = 0.0502

  Important amplitudes:
     core i     occ j      vir a      vir b          v   
    ------------------------------------------------------
     5 (A) A              22 (A) A                 0.6396
     5 (A) B              22 (A) B                 0.6396
    ------------------------------------------------------
  ----------------------------------------------------------------------------


  Excited state  4 (A)                                             [converged]
  ----------------------------------------------------------------------------
  Term symbol:  5 (-) A                                     R^2 =  2.65033e-13

  Total energy:                                           -425.3074656249 a.u.
  Excitation energy:                                             302.804327 eV

  Osc. strength:                                                      0.000000
  Trans. dip. moment [a.u.]:           [  -0.000000,    0.000000,   -0.000000]
  <i|r^2|0> [a.u.]:                    [   0.000000,    0.000000,    0.000000]

  V1^2 = 0.9541, V2^2 = 0.0459

  Important amplitudes:
     core i     occ j      vir a      vir b          v   
    ------------------------------------------------------
     5 (A) B              25 (A) B                -0.5239
     5 (A) A              25 (A) A                 0.5239
    ------------------------------------------------------
  ----------------------------------------------------------------------------


  Excited state  5 (A)                                             [converged]
  ----------------------------------------------------------------------------
  Term symbol:  6 (-) A                                     R^2 =  8.42783e-14

  Total energy:                                           -425.2580977002 a.u.
  Excitation energy:                                             304.147697 eV

  Osc. strength:                                                      0.122203
  Trans. dip. moment [a.u.]:           [   0.091202,   -0.053838,   -0.071997]
  <i|r^2|0> [a.u.]:                    [  -0.241807,   -0.485753,    0.010407]

  V1^2 = 0.9486, V2^2 = 0.0514

  Important amplitudes:
     core i     occ j      vir a      vir b          v   
    ------------------------------------------------------
     5 (A) B              24 (A) B                 0.6054
     5 (A) A              24 (A) A                 0.6054
    ------------------------------------------------------
  ----------------------------------------------------------------------------


  Excited state  6 (A)                                             [converged]
  ----------------------------------------------------------------------------
  Term symbol:  7 (-) A                                     R^2 =  8.56223e-14

  Total energy:                                           -425.2565217435 a.u.
  Excitation energy:                                             304.190581 eV

  Osc. strength:                                                      0.000000
  Trans. dip. moment [a.u.]:           [  -0.000000,    0.000000,    0.000000]
  <i|r^2|0> [a.u.]:                    [   0.000000,    0.000000,   -0.000000]

  V1^2 = 0.9358, V2^2 = 0.0642

  Important amplitudes:
     core i     occ j      vir a      vir b          v   
    ------------------------------------------------------
     5 (A) B              23 (A) B                 0.5422
     5 (A) A              23 (A) A                -0.5422
    ------------------------------------------------------
  ----------------------------------------------------------------------------


  Excited state  7 (A)                                             [converged]
  ----------------------------------------------------------------------------
  Term symbol:  8 (-) A                                     R^2 =  4.04554e-14

  Total energy:                                           -425.2259105621 a.u.
  Excitation energy:                                             305.023553 eV

  Osc. strength:                                                      0.116665
  Trans. dip. moment [a.u.]:           [   0.078872,   -0.000131,    0.096907]
  <i|r^2|0> [a.u.]:                    [  -0.201882,    0.003596,   -0.002761]

  V1^2 = 0.9467, V2^2 = 0.0533

  Important amplitudes:
     core i     occ j      vir a      vir b          v   
    ------------------------------------------------------
     5 (A) A              25 (A) A                 0.5704
     5 (A) B              25 (A) B                 0.5704
    ------------------------------------------------------
  ----------------------------------------------------------------------------


  Excited state  8 (A)                                             [converged]
  ----------------------------------------------------------------------------
  Term symbol:  9 (-) A                                     R^2 =  1.56426e-13

  Total energy:                                           -425.1667018052 a.u.
  Excitation energy:                                             306.634706 eV

  Osc. strength:                                                      0.004841
  Trans. dip. moment [a.u.]:           [   0.006469,   -0.005026,    0.024028]
  <i|r^2|0> [a.u.]:                    [  -0.040932,   -0.072746,   -0.025589]

  V1^2 = 0.9175, V2^2 = 0.0825

  Important amplitudes:
     core i     occ j      vir a      vir b          v   
    ------------------------------------------------------
     5 (A) A              23 (A) A                -0.6125
     5 (A) B              23 (A) B                -0.6125
    ------------------------------------------------------
  ----------------------------------------------------------------------------


  Excited state  9 (A)                                             [converged]
  ----------------------------------------------------------------------------
  Term symbol:  10 (-) A                                    R^2 =  4.72100e-14

  Total energy:                                           -424.9410550944 a.u.
  Excitation energy:                                             312.774865 eV

  Osc. strength:                                                      0.000000
  Trans. dip. moment [a.u.]:           [  -0.000000,   -0.000000,    0.000000]
  <i|r^2|0> [a.u.]:                    [   0.000000,   -0.000000,   -0.000000]

  V1^2 = 0.8983, V2^2 = 0.1017

  Important amplitudes:
     core i     occ j      vir a      vir b          v   
    ------------------------------------------------------
     5 (A) B              26 (A) B                 0.3562
     5 (A) A              26 (A) A                -0.3562
    ------------------------------------------------------
  ----------------------------------------------------------------------------


  Excited state 10 (A)                                             [converged]
  ----------------------------------------------------------------------------
  Term symbol:  11 (-) A                                    R^2 =  1.28943e-13

  Total energy:                                           -424.9125945851 a.u.
  Excitation energy:                                             313.549315 eV

  Osc. strength:                                                      0.019069
  Trans. dip. moment [a.u.]:           [  -0.016185,   -0.041294,    0.022699]
  <i|r^2|0> [a.u.]:                    [   0.026633,   -0.389445,   -0.017969]

  V1^2 = 0.9015, V2^2 = 0.0985

  Important amplitudes:
     core i     occ j      vir a      vir b          v   
    ------------------------------------------------------
     5 (A) B              26 (A) B                 0.4700
     5 (A) A              26 (A) A                 0.4700
    ------------------------------------------------------
  ----------------------------------------------------------------------------


  Excited state 11 (A)                                             [converged]
  ----------------------------------------------------------------------------
  Term symbol:  12 (-) A                                    R^2 =  6.24430e-14

  Total energy:                                           -424.9091400545 a.u.
  Excitation energy:                                             313.643317 eV

  Osc. strength:                                                      0.000000
  Trans. dip. moment [a.u.]:           [  -0.000000,   -0.000000,    0.000000]
  <i|r^2|0> [a.u.]:                    [   0.000000,   -0.000000,   -0.000000]

  V1^2 = 0.8899, V2^2 = 0.1101

  Important amplitudes:
     core i     occ j      vir a      vir b          v   
    ------------------------------------------------------
     5 (A) B              27 (A) B                 0.4650
     5 (A) A              27 (A) A                -0.4650
    ------------------------------------------------------
  ----------------------------------------------------------------------------


  Excited state 12 (A)                                             [converged]
  ----------------------------------------------------------------------------
  Term symbol:  13 (-) A                                    R^2 =  1.75637e-13

  Total energy:                                           -424.9053270608 a.u.
  Excitation energy:                                             313.747074 eV

  Osc. strength:                                                      0.000000
  Trans. dip. moment [a.u.]:           [   0.000000,   -0.000000,    0.000000]
  <i|r^2|0> [a.u.]:                    [  -0.000000,   -0.000000,   -0.000000]

  V1^2 = 0.8894, V2^2 = 0.1106

  Important amplitudes:
     core i     occ j      vir a      vir b          v   
    ------------------------------------------------------
     5 (A) B              29 (A) B                 0.3972
     5 (A) A              29 (A) A                -0.3972
    ------------------------------------------------------
  ----------------------------------------------------------------------------


  Excited state 13 (A)                                             [converged]
  ----------------------------------------------------------------------------
  Term symbol:  14 (-) A                                    R^2 =  4.11994e-14

  Total energy:                                           -424.8946180341 a.u.
  Excitation energy:                                             314.038482 eV

  Osc. strength:                                                      0.026488
  Trans. dip. moment [a.u.]:           [  -0.032697,    0.034802,    0.034096]
  <i|r^2|0> [a.u.]:                    [   0.081587,    0.312205,   -0.008220]

  V1^2 = 0.8926, V2^2 = 0.1074

  Important amplitudes:
     core i     occ j      vir a      vir b          v   
    ------------------------------------------------------
     5 (A) A              27 (A) A                 0.5365
     5 (A) B              27 (A) B                 0.5365
    ------------------------------------------------------
  ----------------------------------------------------------------------------


  Excited state 14 (A)                                             [converged]
  ----------------------------------------------------------------------------
  Term symbol:  15 (-) A                                    R^2 =  1.66777e-13

  Total energy:                                           -424.8900313335 a.u.
  Excitation energy:                                             314.163292 eV

  Osc. strength:                                                      0.027885
  Trans. dip. moment [a.u.]:           [  -0.046576,   -0.006790,   -0.037517]
  <i|r^2|0> [a.u.]:                    [   0.124266,   -0.056913,    0.008704]

  V1^2 = 0.8929, V2^2 = 0.1071

  Important amplitudes:
     core i     occ j      vir a      vir b          v   
    ------------------------------------------------------
     5 (A) A              29 (A) A                -0.4839
     5 (A) B              29 (A) B                -0.4839
    ------------------------------------------------------
  ----------------------------------------------------------------------------


  Excited state 15 (A)                                             [converged]
  ----------------------------------------------------------------------------
  Term symbol:  16 (-) A                                    R^2 =  1.53701e-13

  Total energy:                                           -424.8876630928 a.u.
  Excitation energy:                                             314.227735 eV

  Osc. strength:                                                      0.000000
  Trans. dip. moment [a.u.]:           [   0.000000,   -0.000000,   -0.000000]
  <i|r^2|0> [a.u.]:                    [  -0.000000,   -0.000000,   -0.000000]

  V1^2 = 0.8901, V2^2 = 0.1099

  Important amplitudes:
     core i     occ j      vir a      vir b          v   
    ------------------------------------------------------
     5 (A) B              28 (A) B                -0.4669
     5 (A) A              28 (A) A                 0.4669
    ------------------------------------------------------
  ----------------------------------------------------------------------------


  Excited state 16 (A)                                             [converged]
  ----------------------------------------------------------------------------
  Term symbol:  17 (-) A                                    R^2 =  4.25338e-13

  Total energy:                                           -424.8710760426 a.u.
  Excitation energy:                                             314.679092 eV

  Osc. strength:                                                      0.009011
  Trans. dip. moment [a.u.]:           [   0.005799,    0.021321,   -0.026089]
  <i|r^2|0> [a.u.]:                    [  -0.028473,    0.178642,   -0.009635]

  V1^2 = 0.8940, V2^2 = 0.1060

  Important amplitudes:
     core i     occ j      vir a      vir b          v   
    ------------------------------------------------------
     5 (A) A              28 (A) A                -0.5227
     5 (A) B              28 (A) B                -0.5227
    ------------------------------------------------------
  ----------------------------------------------------------------------------


  Excited state 17 (A)                                             [converged]
  ----------------------------------------------------------------------------
  Term symbol:  18 (-) A                                    R^2 =  1.34282e-07

  Total energy:                                           -424.3005757759 a.u.
  Excitation energy:                                             330.203194 eV

  Osc. strength:                                                      0.000000
  Trans. dip. moment [a.u.]:           [   0.000000,   -0.000000,    0.000000]
  <i|r^2|0> [a.u.]:                    [  -0.000000,   -0.000000,   -0.000000]

  V1^2 = 0.8867, V2^2 = 0.1133

  Important amplitudes:
     core i     occ j      vir a      vir b          v   
    ------------------------------------------------------
     5 (A) A              33 (A) A                -0.4747
     5 (A) B              33 (A) B                 0.4747
    ------------------------------------------------------
  ----------------------------------------------------------------------------


  Excited state 18 (A)                                             [converged]
  ----------------------------------------------------------------------------
  Term symbol:  19 (-) A                                    R^2 =  4.38433e-08

  Total energy:                                           -424.2996436224 a.u.
  Excitation energy:                                             330.228559 eV

  Osc. strength:                                                      0.000067
  Trans. dip. moment [a.u.]:           [  -0.002210,    0.000889,    0.001597]
  <i|r^2|0> [a.u.]:                    [   0.003377,    0.016921,   -0.007055]

  V1^2 = 0.8865, V2^2 = 0.1135

  Important amplitudes:
     core i     occ j      vir a      vir b          v   
    ------------------------------------------------------
     5 (A) B              33 (A) B                -0.4795
     5 (A) A              33 (A) A                -0.4795
    ------------------------------------------------------
  ----------------------------------------------------------------------------


  Excited state 19 (A)                                             [converged]
  ----------------------------------------------------------------------------
  Term symbol:  20 (-) A                                    R^2 =  8.18110e-07

  Total energy:                                           -424.2987601475 a.u.
  Excitation energy:                                             330.252599 eV

  Osc. strength:                                                      0.000000
  Trans. dip. moment [a.u.]:           [  -0.000000,    0.000000,   -0.000000]
  <i|r^2|0> [a.u.]:                    [   0.000000,    0.000000,    0.000000]

  V1^2 = 0.8862, V2^2 = 0.1138

  Important amplitudes:
     core i     occ j      vir a      vir b          v   
    ------------------------------------------------------
     5 (A) B              32 (A) B                 0.6437
     5 (A) A              32 (A) A                -0.6437
    ------------------------------------------------------
  ----------------------------------------------------------------------------


  Excited state 20 (A)                                             [converged]
  ----------------------------------------------------------------------------
  Term symbol:  21 (-) A                                    R^2 =  2.06075e-07

  Total energy:                                           -424.2979017428 a.u.
  Excitation energy:                                             330.275958 eV

  Osc. strength:                                                      0.000033
  Trans. dip. moment [a.u.]:           [  -0.000761,    0.000584,   -0.001781]
  <i|r^2|0> [a.u.]:                    [   0.001360,    0.004385,    0.002202]

  V1^2 = 0.8861, V2^2 = 0.1139

  Important amplitudes:
     core i     occ j      vir a      vir b          v   
    ------------------------------------------------------
     5 (A) A              32 (A) A                -0.6454
     5 (A) B              32 (A) B                -0.6454
    ------------------------------------------------------
  ----------------------------------------------------------------------------


--------------------------------------------------------------------------------
  Time of ADC calculation:  CPU 2992.54 s  wall 1809.48 s
================================================================================
 
 --------------------------------------------------------------
 
                    Orbital Energies (a.u.)
 --------------------------------------------------------------
 
 Alpha MOs
 -- Occupied --
-26.399 -26.385 -26.377 -26.337 -11.606  -1.824  -1.711  -1.688
 -1.629  -1.009  -0.903  -0.897  -0.883  -0.763  -0.760  -0.721
 -0.711  -0.684  -0.679  -0.658  -0.655
 -- Virtual --
  0.384   0.434   0.448   0.471   0.661   0.680   0.692   0.705
  1.283   1.293   1.298   1.299   1.310   1.414   1.565   1.570
  1.601   1.611   1.615   1.654   1.663   1.685   1.767   1.833
  1.857   2.078   2.082   2.088   2.120   2.127   2.168   2.237
  2.256   2.294   2.303   2.328   2.379   2.397   2.400   2.588
  2.835   2.955   3.019   3.166   3.169   3.349   3.433   3.438
  3.473   4.583   4.721   4.777   4.873   6.300
 
 Beta MOs
 -- Occupied --
-26.399 -26.385 -26.377 -26.337 -11.606  -1.824  -1.711  -1.688
 -1.629  -1.009  -0.903  -0.897  -0.883  -0.763  -0.760  -0.721
 -0.711  -0.684  -0.679  -0.658  -0.655
 -- Virtual --
  0.384   0.434   0.448   0.471   0.661   0.680   0.692   0.705
  1.283   1.293   1.298   1.299   1.310   1.414   1.565   1.570
  1.601   1.611   1.615   1.654   1.663   1.685   1.767   1.833
  1.857   2.078   2.082   2.088   2.120   2.127   2.168   2.237
  2.256   2.294   2.303   2.328   2.379   2.397   2.400   2.588
  2.835   2.955   3.019   3.166   3.169   3.349   3.433   3.438
  3.473   4.583   4.721   4.777   4.873   6.300
 --------------------------------------------------------------
 
          Ground-State Mulliken Net Atomic Charges

     Atom                 Charge (a.u.)    Spin (a.u.)
  --------------------------------------------------------
      1 C                     1.303177       0.000000
      2 F                    -0.305388       0.000000
      3 F                    -0.324342       0.000000
      4 F                    -0.404978       0.000000
      5 F                    -0.268469       0.000000
  --------------------------------------------------------
  Sum of atomic charges =     0.000000
  Sum of spin   charges =     0.000000

 -----------------------------------------------------------------
                    Cartesian Multipole Moments
 -----------------------------------------------------------------
    Charge (ESU x 10^10)
                 0.0000
    Dipole Moment (Debye)
         X       0.2295      Y       0.6214      Z      -0.5363
       Tot       0.8523
    Quadrupole Moments (Debye-Ang)
        XX     -25.1235     XY      -0.0809     YY     -22.4215
        XZ       0.5358     YZ      -1.1473     ZZ     -24.6595
    Octopole Moments (Debye-Ang^2)
       XXX      51.0056    XXY     -58.2978    XYY      17.0109
       YYY    -166.9548    XXZ      -0.6176    XYZ       1.1088
       YYZ      -3.6300    XZZ      17.8223    YZZ     -58.2184
       ZZZ       0.3317
    Hexadecapole Moments (Debye-Ang^3)
      XXXX    -146.0549   XXXY     118.4415   XXYY    -175.0346
      XYYY     122.7040   YYYY    -874.1184   XXXZ       1.2116
      XXYZ      -1.1640   XYYZ       3.2802   YYYZ     -13.1626
      XXZZ     -38.2263   XYZZ      41.9070   YYZZ    -163.3667
      XZZZ       0.2198   YZZZ       1.1990   ZZZZ     -75.6855
 -----------------------------------------------------------------
Archival summary:
1\1\tp-linux1\SP\HF\6-31G*\41\thomas\MonMar2001:13:392017MonMar2001:13:392017\0\\#,HF,6-31G*,\\0,1\C\F,1,1.24899\F,1,1.28167,2,113.382\F,1,1.29918,2,112.112,3,-126.393,0\F,1,1.38615,2,107.839,3,117.648,0\\HF=-435.636263\\@

 Total job time:  1812.81s(wall), 3001.65s(cpu) 
 Mon Mar 20 01:13:39 2017

        *************************************************************
        *                                                           *
        *  Thank you very much for using Q-Chem.  Have a nice day.  *
        *                                                           *
        *************************************************************


0 sent ACK to 0 
now end server 0 ... 
cleanup process ... done
