
Running Job 1 of 2 ddtraj5t51.inp
qchem ddtraj5t51.inp_10393.0 /scratch/qchem/qchem10393/ 1
/mnt/software/qchem/bin/mpi/mpirun_qchem -machinefile /mnt/software/qchem/bin/mpi/machines -np 1 /mnt/software/qchem/exe/qcprog.exe ddtraj5t51.inp_10393.0 /scratch/qchem/qchem10393/

Process 0 of 1 is on tp-linux1 - thread support 0
initial socket setup ...start
initial socket setup ...done 
now start server 0 ... 

cmd = ssh tp-linux1 /mnt/software/qchem/bin/get_hostid 293765314 > /scratch/qchem/qchem10393/lic.dat
                  Welcome to Q-Chem
     A Quantum Leap Into The Future Of Chemistry


 Q-Chem 4.3, Q-Chem, Inc., Pleasanton, CA (2015)

 Y. Shao,  Z. Gan,  E. Epifanovsky,  A. T. B. Gilbert,  M. Wormit,  
 J. Kussmann,  A. W. Lange,  A. Behn,  J. Deng,  X. Feng,  D. Ghosh,  
 M. Goldey,  P. R. Horn,  L. D. Jacobson,  I. Kaliman,  R. Z. Khaliullin,  
 T. Kus,  A. Landau,  J. Liu,  E. I. Proynov,  Y. M. Rhee,  R. M. Richard,  
 M. A. Rohrdanz,  R. P. Steele,  E. J. Sundstrom,  H. L. Woodcock III,  
 P. M. Zimmerman,  D. Zuev,  B. Albrecht,  E. Alguire,  B. Austin,  
 S. A. Baeppler,  G. J. O. Beran,  Y. A. Bernard,  E. Berquist,  
 K. Brandhorst,  K. B. Bravaya,  S. T. Brown,  D. Casanova,  C.-M. Chang,  
 Y. Chen,  S. H. Chien,  K. D. Closser,  D. L. Crittenden,  M. Diedenhofen,  
 R. A. DiStasio Jr.,  H. Do,  A. D. Dutoi,  R. G. Edgar,  P.-T. Fang,  
 S. Fatehi,  Q. Feng,  L. Fusti-Molnar,  A. Ghysels,  
 A. Golubeva-Zadorozhnaya,  J. Gomes,  A. Gunina,  M. W. D. Hanson-Heine,  
 P. H. P. Harbach,  A. W. Hauser,  E. G. Hohenstein,  Z. C. Holden,  K. Hui,  
 T.-C. Jagau,  H. Ji,  B. Kaduk,  K. Khistyaev,  Jaehoon Kim,  Jihan Kim,  
 R. A. King,  P. Klunzinger,  D. Kosenkov,  T. Kowalczyk,  C. M. Krauter,  
 K. U. Lao,  A. Laurent,  K. V. Lawler,  S. Lehtola,  S. V. Levchenko,  
 C. Y. Lin,  Y.-S. Lin,  F. Liu,  E. Livshits,  R. C. Lochan,  A. Luenser,  
 P. Manohar,  S. F. Manzer,  S.-P. Mao,  N. Mardirossian,  A. V. Marenich,  
 L. A. Martinez-Martinez,  S. A. Maurer,  N. J. Mayhall,  K. Nanda,  
 C. M. Oana,  R. Olivares-Amaya,  D. P. O'Neill,  J. A. Parkhill,  
 T. M. Perrine,  R. Peverati,  P. A. Pieniazek,  F. Plasser,  A. Prociuk,  
 D. R. Rehn,  E. Rosta,  N. J. Russ,  N. Sergueev,  S. M. Sharada,  
 S. Sharma,  D. W. Small,  A. Sodt,  T. Stauch,  T. Stein,  D. Stuck,  
 Y.-C. Su,  A. J. W. Thom,  T. Tsuchimochi,  L. Vogt,  O. Vydrov,  T. Wang,  
 M. A. Watson,  J. Wenzel,  A. White,  C. F. Williams,  V. Vanovschi,  
 S. Yeganeh,  S. R. Yost,  Z.-Q. You,  I. Y. Zhang,  X. Zhang,  Y. Zhao,  
 B. R. Brooks,  G. K. L. Chan,  D. M. Chipman,  C. J. Cramer,  
 W. A. Goddard III,  M. S. Gordon,  W. J. Hehre,  A. Klamt,  
 H. F. Schaefer III,  M. W. Schmidt,  C. D. Sherrill,  D. G. Truhlar,  
 A. Warshel,  X. Xu,  A. Aspuru-Guzik,  R. Baer,  A. T. Bell,  N. A. Besley,  
 J.-D. Chai,  A. Dreuw,  B. D. Dunietz,  T. R. Furlani,  S. R. Gwaltney,  
 C.-P. Hsu,  Y. Jung,  J. Kong,  D. S. Lambrecht,  W. Liang,  C. Ochsenfeld,  
 V. A. Rassolov,  L. V. Slipchenko,  J. E. Subotnik,  T. Van Voorhis,  
 J. M. Herbert,  A. I. Krylov,  P. M. W. Gill,  M. Head-Gordon

 Contributors to earlier versions of Q-Chem not listed above: 
 R. D. Adamson,  J. Baker,  E. F. C. Byrd,  A. K. Chakraborty,  C.-L. Cheng,  
 H. Dachsel,  R. J. Doerksen,  G. Hawkins,  A. Heyden,  S. Hirata,  
 G. Kedziora,  F. J. Keil,  C. Kelley,  P. P. Korambath,  W. Kurlancheek,  
 A. M. Lee,  M. S. Lee,  D. Liotard,  I. Lotan,  P. E. Maslen,  N. Nair,  
 D. Neuhauser,  R. Olson,  B. Peters,  J. Ritchie,  N. E. Schultz,  
 N. Shenvi,  A. C. Simmonett,  K. S. Thanthiriwatte,  Q. Wu,  W. Zhang

 Please cite Q-Chem as follows:
 Y. Shao et al., Mol. Phys. 113, 184-215 (2015)
 DOI: 10.1080/00268976.2014.952696

 Q-Chem 4.3.0 for Intel X86 Linux

 Parts of Q-Chem use Armadillo 5.200.1 (Boston Tea Smuggler).
 http://arma.sourceforge.net/

 Q-Chem begins on Tue Mar 14 21:43:53 2017  

Host: 
0

     Scratch files written to /scratch/qchem/qchem10393//
 Nov1815 1189b_ 19540  19532 5443   
 Parallel job on  1  processors
Processing $rem in /mnt/software/qchem/config/preferences.
 MEM_TOTAL  2000 

Checking the input file for inconsistencies... 	...done.

--------------------------------------------------------------
User input:
--------------------------------------------------------------
$comment
XAS calculation for the 2b valence excited for water using cvs-adc(2)-x + 6-311+G* basis set
job 1 - determination of HF orbitals
$end

$molecule
0 1
6  -0.474832  3.184922  -0.267199
9  0.476177  2.458873  0.032079
9  -1.019379  3.837866  0.611794
9  -1.279594  -0.359722  0.81118
9  -1.120844  2.934228  -1.283151
$end

$rem
jobtype      sp
sym_ignore true
exchange     hf
basis        6-31G*
unrestricted true
$end

--------------------------------------------------------------
 ----------------------------------------------------------------
             Standard Nuclear Orientation (Angstroms)
    I     Atom           X                Y                Z
 ----------------------------------------------------------------
    1      C      -0.4748320000     3.1849220000    -0.2671990000
    2      F       0.4761770000     2.4588730000     0.0320790000
    3      F      -1.0193790000     3.8378660000     0.6117940000
    4      F      -1.2795940000    -0.3597220000     0.8111800000
    5      F      -1.1208440000     2.9342280000    -1.2831510000
 ----------------------------------------------------------------
 Nuclear Repulsion Energy =   171.8776397519 hartrees
 There are       21 alpha and       21 beta electrons
 Requested basis set is 6-31G(d)
 There are 20 shells and 75 basis functions

 Total QAlloc Memory Limit   2000 MB
 Mega-Array Size        61 MB
 MEM_STATIC part        62 MB

                       Distance Matrix (Angstroms)
             C (  1)   F (  2)   F (  3)   F (  4)
   F (  2)  1.233342
   F (  3)  1.222905  2.115273
   F (  4)  3.791444  3.410895  4.210370
   F (  5)  1.229771  2.122797  2.101826  3.906601
 
 tim1(1): 
  0.000000000000000E+000
 tim1(2): 
  0.000000000000000E+000
 A cutoff of  1.0D-08 yielded    167 shell pairs
 There are      2510 function pairs
 
 -------------------------------------------------------
 OpenMP Integral Computing Module                       
 Release: version 1.0, May 2013, Q-Chem Inc. Pittsburgh 
 -------------------------------------------------------
 Integral Job Info:
 Integral job number is                      11
 Integral operator is                         1
 short-range coefficients                     0
 long-range coefficients              100000000
 Omega coefficients                           0
 if combine SR and LR in K                    0
 Integral screening is                        0
 Integral computing path is                   2
 max size of driver memory is            800000
 size of driver memory is                593474
 size of scratch memory is              2260544
 max col of scratch BK array               1296
 max len of scratch array in speh3          155
 max len of scratch index in speh4           18
 max int batch size is                      520
 min int batch size is                       52
 fixed nKL is                                52
 max L of basis functions is                  2
 order of int derivative is                   0
 number of shells is                         20
 number of basis is                          75
 number of cartesian basis is                75
 number of contracted shell pairs           167
 number of primitive shell pairs            839
 maxK2 (contraction) of shell pair           36
 max number of K2 of shell pair               1
 max number of CS2 of shell pair             26
 max number of PS2 of shell pair            180
 mem total for path MDJ                   16840
 -------------------------------------------------------
 Smallest overlap matrix eigenvalue = 4.07E-03

 Scale SEOQF with 1.000000e+00/1.000000e-01/1.000000e+00

 Standard Electronic Orientation quadrupole field applied
 Nucleus-field energy     =     0.0000000109 hartrees
 Guess from superposition of atomic densities
 Warning:  Energy on first SCF cycle will be non-variational
 An unrestricted Hartree-Fock SCF calculation will be
 performed using Pulay DIIS extrapolation
 SCF converges when DIIS error is below 1.0E-05
 using 8 threads for integral computing 
 ---------------------------------------
  Cycle       Energy         DIIS Error
 ---------------------------------------
    1    -436.3184652503      9.00E-02
    2    -435.0446270341      2.16E-02
    3    -433.8817578713      3.91E-02
    4    -435.2283769941      1.16E-02
    5    -435.2649953294      7.16E-03
    6    -435.2877901581      2.62E-03
    7    -435.2910578153      8.87E-04
    8    -435.2915589219      1.73E-04
    9    -435.2916474330      5.70E-05
   10    -435.2917302603      6.26E-05
   11    -435.2918008609      6.54E-05
   12    -435.2919544648      8.02E-05
   13    -435.2919958205      5.12E-05
   14    -435.2917487620      3.53E-04
   15    -435.2920484723      5.71E-05
   16    -435.2920609359      4.36E-05
   17    -435.2920493394      7.58E-05
   18    -435.2920512792      6.69E-05
   19    -435.2920675581      3.71E-05
   20    -435.2920766291      2.78E-05
   21    -435.2920769409      2.63E-05
   22    -435.2920784868      6.89E-07 Convergence criterion met
 ---------------------------------------
 <S^2> = 0.0000
 SCF time:  CPU 16.13 s  wall 9.05 s
 SCF   energy in the final basis set = -435.2920784868
 Total energy in the final basis set = -435.2920784868
 
 --------------------------------------------------------------
 
                    Orbital Energies (a.u.)
 --------------------------------------------------------------
 
 Alpha MOs
 -- Occupied --
-26.608 -26.602 -26.593 -25.868 -11.806  -2.019  -1.918  -1.907
 -1.180  -1.132  -1.094  -1.090  -1.038  -0.928  -0.923  -0.904
 -0.892  -0.876  -0.243  -0.243  -0.232
 -- Virtual --
 -0.091   0.182   0.325   0.328   0.482   0.543   0.549   0.572
  1.141   1.150   1.164   1.257   1.257   1.384   1.422   1.424
  1.430   1.439   1.450   1.477   1.552   1.783   1.789   1.823
  1.830   1.831   1.887   1.896   1.925   2.016   2.024   2.066
  2.088   2.097   2.153   2.190   2.485   2.490   2.490   2.493
  2.493   2.498   2.782   2.790   3.099   3.108   3.330   3.332
  3.339   4.112   4.323   4.772   4.860   4.872
 
 Beta MOs
 -- Occupied --
-26.608 -26.602 -26.593 -25.868 -11.806  -2.019  -1.918  -1.907
 -1.180  -1.132  -1.094  -1.090  -1.038  -0.928  -0.923  -0.904
 -0.892  -0.876  -0.243  -0.243  -0.232
 -- Virtual --
 -0.091   0.182   0.325   0.328   0.482   0.543   0.549   0.572
  1.141   1.150   1.164   1.257   1.257   1.384   1.422   1.424
  1.430   1.439   1.450   1.477   1.552   1.783   1.789   1.823
  1.830   1.831   1.887   1.896   1.925   2.016   2.024   2.066
  2.088   2.097   2.153   2.190   2.485   2.490   2.490   2.493
  2.493   2.498   2.782   2.790   3.099   3.108   3.330   3.332
  3.339   4.112   4.323   4.772   4.860   4.872
 --------------------------------------------------------------
 
          Ground-State Mulliken Net Atomic Charges

     Atom                 Charge (a.u.)    Spin (a.u.)
  --------------------------------------------------------
      1 C                     1.231256       0.000000
      2 F                    -0.082143       0.000000
      3 F                    -0.100574       0.000000
      4 F                    -0.949014       0.000000
      5 F                    -0.099525       0.000000
  --------------------------------------------------------
  Sum of atomic charges =     0.000000
  Sum of spin   charges =     0.000000

 -----------------------------------------------------------------
                    Cartesian Multipole Moments
 -----------------------------------------------------------------
    Charge (ESU x 10^10)
                 0.0000
    Dipole Moment (Debye)
         X       3.7384      Y      15.9097      Z      -4.8678
       Tot      17.0526
    Quadrupole Moments (Debye-Ang)
        XX     -28.6767     XY      -8.3356     YY      22.7972
        XZ       5.1405     YZ      -2.7474     ZZ     -24.9693
    Octopole Moments (Debye-Ang^2)
       XXX      57.6577    XXY     -44.2515    XYY      -2.4631
       YYY      -2.8409    XXZ      -6.9582    XYZ      -0.5726
       YYZ     -14.3469    XZZ      19.3581    YZZ     -47.4830
       ZZZ      -5.1018
    Hexadecapole Moments (Debye-Ang^3)
      XXXX    -150.3397   XXXY      82.5619   XXYY    -183.7101
      XYYY      28.5697   YYYY    -536.0790   XXXZ      13.4447
      XXYZ      12.8422   XYYZ       4.0282   YYYZ     -10.8678
      XXZZ     -41.5680   XYZZ      25.8991   YYZZ    -178.3755
      XZZZ       9.1797   YZZZ      32.8137   ZZZZ     -90.0105
 -----------------------------------------------------------------
Archival summary:
1\1\tp-linux1\SP\HF\6-31G*\41\thomas\TueMar1421:44:022017TueMar1421:44:022017\0\\#,HF,6-31G*,\\0,1\C\F,1,1.2229\F,1,1.22977,2,117.952\F,1,1.23334,2,118.898,3,157.031,0\F,4,3.4109,1,98.3354,2,-88.5289,0\\HF=-435.292078\\@

 Total job time:  9.44s(wall), 18.25s(cpu) 
 Tue Mar 14 21:44:02 2017

        *************************************************************
        *                                                           *
        *  Thank you very much for using Q-Chem.  Have a nice day.  *
        *                                                           *
        *************************************************************


0 sent ACK to 0 
now end server 0 ... 
cleanup process ... done

Running Job 2 of 2 ddtraj5t51.inp
qchem ddtraj5t51.inp_10393.1 /scratch/qchem/qchem10393/ 1
/mnt/software/qchem/bin/mpi/mpirun_qchem -machinefile /mnt/software/qchem/bin/mpi/machines -np 1 /mnt/software/qchem/exe/qcprog.exe ddtraj5t51.inp_10393.1 /scratch/qchem/qchem10393/

Process 0 of 1 is on tp-linux1 - thread support 0
initial socket setup ...start
initial socket setup ...done 
now start server 0 ... 

cmd = ssh tp-linux1 /mnt/software/qchem/bin/get_hostid 2011153400 > /scratch/qchem/qchem10393/lic.dat
                  Welcome to Q-Chem
     A Quantum Leap Into The Future Of Chemistry


 Q-Chem 4.3, Q-Chem, Inc., Pleasanton, CA (2015)

 Y. Shao,  Z. Gan,  E. Epifanovsky,  A. T. B. Gilbert,  M. Wormit,  
 J. Kussmann,  A. W. Lange,  A. Behn,  J. Deng,  X. Feng,  D. Ghosh,  
 M. Goldey,  P. R. Horn,  L. D. Jacobson,  I. Kaliman,  R. Z. Khaliullin,  
 T. Kus,  A. Landau,  J. Liu,  E. I. Proynov,  Y. M. Rhee,  R. M. Richard,  
 M. A. Rohrdanz,  R. P. Steele,  E. J. Sundstrom,  H. L. Woodcock III,  
 P. M. Zimmerman,  D. Zuev,  B. Albrecht,  E. Alguire,  B. Austin,  
 S. A. Baeppler,  G. J. O. Beran,  Y. A. Bernard,  E. Berquist,  
 K. Brandhorst,  K. B. Bravaya,  S. T. Brown,  D. Casanova,  C.-M. Chang,  
 Y. Chen,  S. H. Chien,  K. D. Closser,  D. L. Crittenden,  M. Diedenhofen,  
 R. A. DiStasio Jr.,  H. Do,  A. D. Dutoi,  R. G. Edgar,  P.-T. Fang,  
 S. Fatehi,  Q. Feng,  L. Fusti-Molnar,  A. Ghysels,  
 A. Golubeva-Zadorozhnaya,  J. Gomes,  A. Gunina,  M. W. D. Hanson-Heine,  
 P. H. P. Harbach,  A. W. Hauser,  E. G. Hohenstein,  Z. C. Holden,  K. Hui,  
 T.-C. Jagau,  H. Ji,  B. Kaduk,  K. Khistyaev,  Jaehoon Kim,  Jihan Kim,  
 R. A. King,  P. Klunzinger,  D. Kosenkov,  T. Kowalczyk,  C. M. Krauter,  
 K. U. Lao,  A. Laurent,  K. V. Lawler,  S. Lehtola,  S. V. Levchenko,  
 C. Y. Lin,  Y.-S. Lin,  F. Liu,  E. Livshits,  R. C. Lochan,  A. Luenser,  
 P. Manohar,  S. F. Manzer,  S.-P. Mao,  N. Mardirossian,  A. V. Marenich,  
 L. A. Martinez-Martinez,  S. A. Maurer,  N. J. Mayhall,  K. Nanda,  
 C. M. Oana,  R. Olivares-Amaya,  D. P. O'Neill,  J. A. Parkhill,  
 T. M. Perrine,  R. Peverati,  P. A. Pieniazek,  F. Plasser,  A. Prociuk,  
 D. R. Rehn,  E. Rosta,  N. J. Russ,  N. Sergueev,  S. M. Sharada,  
 S. Sharma,  D. W. Small,  A. Sodt,  T. Stauch,  T. Stein,  D. Stuck,  
 Y.-C. Su,  A. J. W. Thom,  T. Tsuchimochi,  L. Vogt,  O. Vydrov,  T. Wang,  
 M. A. Watson,  J. Wenzel,  A. White,  C. F. Williams,  V. Vanovschi,  
 S. Yeganeh,  S. R. Yost,  Z.-Q. You,  I. Y. Zhang,  X. Zhang,  Y. Zhao,  
 B. R. Brooks,  G. K. L. Chan,  D. M. Chipman,  C. J. Cramer,  
 W. A. Goddard III,  M. S. Gordon,  W. J. Hehre,  A. Klamt,  
 H. F. Schaefer III,  M. W. Schmidt,  C. D. Sherrill,  D. G. Truhlar,  
 A. Warshel,  X. Xu,  A. Aspuru-Guzik,  R. Baer,  A. T. Bell,  N. A. Besley,  
 J.-D. Chai,  A. Dreuw,  B. D. Dunietz,  T. R. Furlani,  S. R. Gwaltney,  
 C.-P. Hsu,  Y. Jung,  J. Kong,  D. S. Lambrecht,  W. Liang,  C. Ochsenfeld,  
 V. A. Rassolov,  L. V. Slipchenko,  J. E. Subotnik,  T. Van Voorhis,  
 J. M. Herbert,  A. I. Krylov,  P. M. W. Gill,  M. Head-Gordon

 Contributors to earlier versions of Q-Chem not listed above: 
 R. D. Adamson,  J. Baker,  E. F. C. Byrd,  A. K. Chakraborty,  C.-L. Cheng,  
 H. Dachsel,  R. J. Doerksen,  G. Hawkins,  A. Heyden,  S. Hirata,  
 G. Kedziora,  F. J. Keil,  C. Kelley,  P. P. Korambath,  W. Kurlancheek,  
 A. M. Lee,  M. S. Lee,  D. Liotard,  I. Lotan,  P. E. Maslen,  N. Nair,  
 D. Neuhauser,  R. Olson,  B. Peters,  J. Ritchie,  N. E. Schultz,  
 N. Shenvi,  A. C. Simmonett,  K. S. Thanthiriwatte,  Q. Wu,  W. Zhang

 Please cite Q-Chem as follows:
 Y. Shao et al., Mol. Phys. 113, 184-215 (2015)
 DOI: 10.1080/00268976.2014.952696

 Q-Chem 4.3.0 for Intel X86 Linux

 Parts of Q-Chem use Armadillo 5.200.1 (Boston Tea Smuggler).
 http://arma.sourceforge.net/

 Q-Chem begins on Tue Mar 14 21:44:05 2017  

Host: 
0

     Scratch files written to /scratch/qchem/qchem10393//
 Nov1815 1189b_ 19540  19532 5443   
 Parallel job on  1  processors
Processing $rem in /mnt/software/qchem/config/preferences.
 MEM_TOTAL  2000 

Checking the input file for inconsistencies... 	...done.

--------------------------------------------------------------
User input:
--------------------------------------------------------------

$comment
job3 - cvs-adc(2) calculation
$end

$molecule
read
$end

$rem
mem_total 3000
mem_static 1500
sym_ignore true
scf_guess read
method cvs-adc(2)
basis 6-31G*
ee_singlets 20
cc_rest_occ 1                  !only excitations from the lowest N orbitals
unrestricted  true
max_scf_cycles 200
$end
--------------------------------------------------------------
 ----------------------------------------------------------------
             Standard Nuclear Orientation (Angstroms)
    I     Atom           X                Y                Z
 ----------------------------------------------------------------
    1      C      -0.4748320000     3.1849220000    -0.2671990000
    2      F       0.4761770000     2.4588730000     0.0320790000
    3      F      -1.0193790000     3.8378660000     0.6117940000
    4      F      -1.2795940000    -0.3597220000     0.8111800000
    5      F      -1.1208440000     2.9342280000    -1.2831510000
 ----------------------------------------------------------------
 Nuclear Repulsion Energy =   171.8776397519 hartrees
 There are       21 alpha and       21 beta electrons
 Requested basis set is 6-31G(d)
 There are 20 shells and 75 basis functions

 Total QAlloc Memory Limit   3000 MB
 Mega-Array Size      1467 MB
 MEM_STATIC part      1500 MB

                       Distance Matrix (Angstroms)
             C (  1)   F (  2)   F (  3)   F (  4)
   F (  2)  1.233342
   F (  3)  1.222905  2.115273
   F (  4)  3.791444  3.410895  4.210370
   F (  5)  1.229771  2.122797  2.101826  3.906601
 
 tim1(1): 
  0.000000000000000E+000
 tim1(2): 
  0.000000000000000E+000
 A cutoff of  1.0D-11 yielded    180 shell pairs
 There are      2754 function pairs
 
 -------------------------------------------------------
 OpenMP Integral Computing Module                       
 Release: version 1.0, May 2013, Q-Chem Inc. Pittsburgh 
 -------------------------------------------------------
 Integral Job Info:
 Integral job number is                      11
 Integral operator is                         1
 short-range coefficients                     0
 long-range coefficients              100000000
 Omega coefficients                           0
 if combine SR and LR in K                    0
 Integral screening is                        0
 Integral computing path is                   2
 max size of driver memory is            800000
 size of driver memory is                593474
 size of scratch memory is              2260544
 max col of scratch BK array               1296
 max len of scratch array in speh3          155
 max len of scratch index in speh4           18
 max int batch size is                      520
 min int batch size is                       52
 fixed nKL is                                52
 max L of basis functions is                  2
 order of int derivative is                   0
 number of shells is                         20
 number of basis is                          75
 number of cartesian basis is                75
 number of contracted shell pairs           180
 number of primitive shell pairs            927
 maxK2 (contraction) of shell pair           36
 max number of K2 of shell pair               1
 max number of CS2 of shell pair             31
 max number of PS2 of shell pair            186
 mem total for path MDJ                   17476
 -------------------------------------------------------
 Smallest overlap matrix eigenvalue = 4.07E-03

 Scale SEOQF with 1.000000e+00/1.000000e-01/1.000000e+00

 Standard Electronic Orientation quadrupole field applied
 Nucleus-field energy     =     0.0000000109 hartrees
 Guess MOs from SCF MO coefficient file
 Reading MOs from coefficient file
 Reading MOs from coefficient file
 An unrestricted Hartree-Fock SCF calculation will be
 performed using Pulay DIIS extrapolation
 SCF converges when DIIS error is below 1.0E-08
 using 8 threads for integral computing 
 ---------------------------------------
  Cycle       Energy         DIIS Error
 ---------------------------------------
    1    -435.2920782509      9.99E-07
    2    -435.2920782607      8.85E-07
    3    -435.2920782612      2.78E-07
    4    -435.2920782615      2.39E-07
    5    -435.2920782619      1.57E-07
    6    -435.2920782623      6.33E-08
    7    -435.2920782624      5.19E-08
    8    -435.2920782625      4.51E-08
    9    -435.2920782627      1.47E-08
   10    -435.2920782628      3.48E-09 Convergence criterion met
 ---------------------------------------
 <S^2> = 0.0000
 SCF time:  CPU 10.50 s  wall 2.19 s
 SCF   energy in the final basis set = -435.2920782628
 Total energy in the final basis set = -435.2920782628
================================================================================
|                                                                              |
|                                 A D C  M A N                                 |
|                                                                              |
 ------------------------------------------------------------------------------ 
|                                                                              |
| Components:                                                                  |
|                                                                              |
| - libvmm - 1.2-release                                                       |
|   Authors:                                                                   |
|   Evgeny Epifanovsky, Ilya Kaliman                                           |
|                                                                              |
| - libtensor - 2.4-trunk                                                      |
|   Authors:                                                                   |
|   Evgeny Epifanovsky, Michael Wormit, Dmitry Zuev, Sam Manzer                |
|                                                                              |
| - libwfa - 1.1-beta                                                          |
|   Authors:                                                                   |
|   Felix Plasser, Stefanie Baeppler, Benjamin Thomitzni, Michael Wormit       |
|                                                                              |
| - libadc - 1.0-beta                                                          |
|   Authors:                                                                   |
|   Michael Wormit, Philipp H. P. Harbach, Caroline Krauter, Dirk Rehn,        |
|   Matthias Schneider, Jan Wenzel                                             |
|                                                                              |
| - adcman - 2.4-beta                                                          |
|   Authors:                                                                   |
|   Michael Wormit, Philipp H. P. Harbach, Caroline Krauter, Dirk Rehn,        |
|   Jan Wenzel, Andreas Dreuw                                                  |
|                                                                              |
| Authors of earlier versions of ADCMAN:                                       |
| Andreas Dreuw, Jan Hendrik Starcke, Dirk Rehn, Michael Wormit                |
|                                                                              |
================================================================================

 
 Alpha MOs, Unrestricted
 -- Occupied --                  
-26.608 -26.602 -26.593 -25.868 -11.806  -2.019  -1.918  -1.907
  1 A     2 A     3 A     4 A     5 A     6 A     7 A     8 A                  
 -1.180  -1.132  -1.094  -1.090  -1.038  -0.928  -0.923  -0.904
  9 A    10 A    11 A    12 A    13 A    14 A    15 A    16 A                  
 -0.892  -0.876  -0.243  -0.243  -0.232
 17 A    18 A    19 A    20 A    21 A                                          
 -- Virtual --                   
 -0.091   0.182   0.325   0.328   0.482   0.543   0.549   0.572
 22 A    23 A    24 A    25 A    26 A    27 A    28 A    29 A                  
  1.141   1.150   1.164   1.257   1.257   1.383   1.422   1.424
 30 A    31 A    32 A    33 A    34 A    35 A    36 A    37 A                  
  1.430   1.439   1.450   1.477   1.552   1.783   1.789   1.823
 38 A    39 A    40 A    41 A    42 A    43 A    44 A    45 A                  
  1.830   1.831   1.887   1.896   1.925   2.016   2.024   2.066
 46 A    47 A    48 A    49 A    50 A    51 A    52 A    53 A                  
  2.088   2.097   2.153   2.190   2.485   2.490   2.490   2.493
 54 A    55 A    56 A    57 A    58 A    59 A    60 A    61 A                  
  2.493   2.498   2.782   2.790   3.099   3.108   3.330   3.332
 62 A    63 A    64 A    65 A    66 A    67 A    68 A    69 A                  
  3.339   4.112   4.323   4.772   4.860   4.872
 70 A    71 A    72 A    73 A    74 A    75 A                                  
 
 Beta MOs, Unrestricted
 -- Occupied --                  
-26.608 -26.602 -26.593 -25.868 -11.806  -2.019  -1.918  -1.907
  1 A     2 A     3 A     4 A     5 A     6 A     7 A     8 A                  
 -1.180  -1.132  -1.094  -1.090  -1.038  -0.928  -0.923  -0.904
  9 A    10 A    11 A    12 A    13 A    14 A    15 A    16 A                  
 -0.892  -0.876  -0.243  -0.243  -0.232
 17 A    18 A    19 A    20 A    21 A                                          
 -- Virtual --                   
 -0.091   0.182   0.325   0.328   0.482   0.543   0.549   0.572
 22 A    23 A    24 A    25 A    26 A    27 A    28 A    29 A                  
  1.141   1.150   1.164   1.257   1.257   1.383   1.422   1.424
 30 A    31 A    32 A    33 A    34 A    35 A    36 A    37 A                  
  1.430   1.439   1.450   1.477   1.552   1.783   1.789   1.823
 38 A    39 A    40 A    41 A    42 A    43 A    44 A    45 A                  
  1.830   1.831   1.887   1.896   1.925   2.016   2.024   2.066
 46 A    47 A    48 A    49 A    50 A    51 A    52 A    53 A                  
  2.088   2.097   2.153   2.190   2.485   2.490   2.490   2.493
 54 A    55 A    56 A    57 A    58 A    59 A    60 A    61 A                  
  2.493   2.498   2.782   2.790   3.099   3.108   3.330   3.332
 62 A    63 A    64 A    65 A    66 A    67 A    68 A    69 A                  
  3.339   4.112   4.323   4.772   4.860   4.872
 70 A    71 A    72 A    73 A    74 A    75 A                                  
 

--------------------------------------------------------------------------------
                                   HF Summary                                   
--------------------------------------------------------------------------------
  Energy:                                                 -435.2920782628 a.u.
  Dip. moment [a.u.]:                  [ -56.918530,  180.731051,    1.808978]
  Total dipole [Debye]:                                             481.637267
  <r^2> [a.u.]:                        [ 159.836591, 1148.977205,  106.221714]
  Total <r^2> [a.u.]:                                              1415.035511
--------------------------------------------------------------------------------

--------------------------------------------------------------------------------
                                 MP(2) Summary                                  
--------------------------------------------------------------------------------
  Energy contribution:                                      -0.8168614956 a.u.
  Total energy:                                           -436.1089397583 a.u.
  Dip. moment [a.u.]:                  [ -56.632505,  181.804003,    1.464707]
  Total dipole [Debye]:                                             484.014838
  <r^2> [a.u.]:                        [ 159.005861, 1155.646672,  105.920748]
  Total <r^2> [a.u.]:                                              1420.573281
--------------------------------------------------------------------------------
  Starting Davidson ... 
--------------------------------------------------------------------------------
   It NVec Conv  Avg. Norm  Max. Norm  Conv. states           Remark
--------------------------------------------------------------------------------
        20    0  3.633e-01  1.728e+00 26.0788 n n n n n n n n Guess.
    1   40    0  1.188e-01  1.436e+00 25.3825 n n n n n n n n 
    2   60    0  3.462e-02  6.485e-01 25.3719 n n n n n n n n 
    3   80    0  1.529e-02  2.961e-01 25.3714 n n n n n n n n 
    4  100    0  1.396e-02  2.742e-01 25.3714 n n n n n n n n 
    5   40    0  7.163e-03  1.409e-01 25.3714 n n n n n n n n Subspace collapsed.
    6   60    0  1.208e-02  2.092e-01 25.3714 n n n n n n n n 
    7   80    0  9.702e-03  1.561e-01 25.3714 n n n n n n n n 
    8  100    0  6.591e-03  9.752e-02 25.3714 n n n n n n n n 
    9   40    0  4.300e-03  6.170e-02 25.3714 n n n n n n n n Subspace collapsed.
   10   60    0  3.530e-03  5.291e-02 25.3714 n n n n n n n n 
   11   80    2  2.692e-03  4.770e-02 25.3714 y y n n n n n n 
   12  100    5  1.770e-03  2.920e-02 25.3714 y y y y n y n n 
   13   40   10  9.032e-04  1.383e-02 25.3714 y y y y y y y y Subspace collapsed.
   14   60   13  9.386e-04  1.384e-02 25.3714 y y y y y y y y 
   15   80   14  9.514e-04  1.416e-02 25.3714 y y y y y y y y 
   16  100   16  9.501e-04  1.521e-02 25.3714 y y y y y y y y 
   17   40   16  6.091e-04  9.837e-03 25.3714 y y y y y y y y Subspace collapsed.
   18   60   16  5.437e-04  8.479e-03 25.3714 y y y y y y y y 
   19   80   16  5.182e-04  8.346e-03 25.3714 y y y y y y y y 
   20  100   16  4.933e-04  7.617e-03 25.3714 y y y y y y y y 
   21   40   16  3.387e-04  5.444e-03 25.3714 y y y y y y y y Subspace collapsed.
   22   59   16  3.267e-04  4.811e-03 25.3714 y y y y y y y y 
   23   77   16  3.396e-04  5.228e-03 25.3714 y y y y y y y y 
   24   77   16  3.396e-04  5.228e-03 25.3714 y y y y y y y y 
   25   97   16  3.205e-04  4.855e-03 25.3714 y y y y y y y y 
   26  100   16  3.369e-04  5.180e-03 25.3714 y y y y y y y y 
   27   35   16  2.256e-04  3.670e-03 25.3714 y y y y y y y y Subspace collapsed.
   28   48   16  1.757e-04  2.560e-03 25.3714 y y y y y y y y 
   29   60   16  1.611e-04  2.280e-03 25.3714 y y y y y y y y 
   30   72   16  1.608e-04  2.541e-03 25.3714 y y y y y y y y 
   31   82   16  1.590e-04  2.519e-03 25.3714 y y y y y y y y 
   32   89   16  1.828e-04  2.934e-03 25.3714 y y y y y y y y 
   33   94   16  7.690e-03  1.538e-01 25.3714 y y y y y y y y 
   34   94   16  7.690e-03  1.538e-01 25.3714 y y y y y y y y 
   35  100   16  7.485e-03  1.497e-01 25.3714 y y y y y y y y 
   36   25   16  3.898e-03  7.794e-02 25.3714 y y y y y y y y Subspace collapsed.
   37   29   16  3.034e-03  6.067e-02 25.3714 y y y y y y y y 
   38   33   16  2.828e-03  5.655e-02 25.3714 y y y y y y y y 
   39   37   16  1.926e-03  3.852e-02 25.3714 y y y y y y y y 
   40   41   16  1.655e-03  3.309e-02 25.3714 y y y y y y y y 
   41   45   16  1.241e-03  2.483e-02 25.3714 y y y y y y y y 
   42   49   16  8.769e-04  1.754e-02 25.3714 y y y y y y y y 
   43   53   16  6.439e-04  1.288e-02 25.3714 y y y y y y y y 
   44   57   17  4.736e-04  9.472e-03 25.3714 y y y y y y y y 
   45   61   17  3.019e-04  6.037e-03 25.3714 y y y y y y y y 
   46   65   17  1.985e-04  3.970e-03 25.3714 y y y y y y y y 
   47   69   17  1.099e-04  2.198e-03 25.3714 y y y y y y y y 
   48   73   17  6.816e-05  1.363e-03 25.3714 y y y y y y y y 
   49   77   17  4.530e-05  9.061e-04 25.3714 y y y y y y y y 
   50   81   17  3.743e-05  7.485e-04 25.3714 y y y y y y y y 
   51   85   18  2.862e-05  5.724e-04 25.3714 y y y y y y y y 
   52   89   18  1.826e-05  3.652e-04 25.3714 y y y y y y y y 
   53   93   19  9.721e-06  1.944e-04 25.3714 y y y y y y y y 
   54   97   19  5.453e-06  1.091e-04 25.3714 y y y y y y y y 
   55  100   19  4.915e-06  9.830e-05 25.3714 y y y y y y y y 
   56   24   19  2.280e-06  4.559e-05 25.3714 y y y y y y y y Subspace collapsed.
   57   28   19  2.246e-06  4.492e-05 25.3714 y y y y y y y y 
   58   32   19  2.142e-06  4.285e-05 25.3714 y y y y y y y y 
   59   36   19  1.880e-06  3.759e-05 25.3714 y y y y y y y y 
--------------------------------------------------------------------------------
  Davidson Summary: 
 ------------------------------------------------------------
  State  0: excitation energy =  25.3714 a.u.   (converged)
  State  1: excitation energy =  25.3801 a.u.   (converged)
  State  2: excitation energy =  25.5928 a.u.   (converged)
  State  3: excitation energy =  25.6260 a.u.   (converged)
  State  4: excitation energy =  25.7808 a.u.   (converged)
  State  5: excitation energy =  25.7870 a.u.   (converged)
  State  6: excitation energy =  25.7927 a.u.   (converged)
  State  7: excitation energy =  25.7983 a.u.   (converged)
  State  8: excitation energy =  25.9369 a.u.   (converged)
  State  9: excitation energy =  25.9487 a.u.   (converged)
  State 10: excitation energy =  25.9802 a.u.   (converged)
  State 11: excitation energy =  25.9844 a.u.   (converged)
  State 12: excitation energy =  25.9977 a.u.   (converged)
  State 13: excitation energy =  25.9980 a.u.   (converged)
  State 14: excitation energy =  26.0571 a.u.   (converged)
  State 15: excitation energy =  26.0576 a.u.   (converged)
  State 16: excitation energy =  26.5016 a.u.   (converged)
  State 17: excitation energy =  26.5430 a.u.   (converged)
  State 18: excitation energy =  26.5486 a.u.   (converged)
  State 19: excitation energy =  26.5832 a.u.   (not converged)
 ------------------------------------------------------------


--------------------------------------------------------------------------------
                             Excited State Summary
--------------------------------------------------------------------------------

  Excited state  1 (A)                                             [converged]
  ----------------------------------------------------------------------------
  Term symbol:  2 (-) A                                     R^2 =  3.30728e-13

  Total energy:                                           -410.7375408072 a.u.
  Excitation energy:                                             690.390877 eV

  Osc. strength:                                                      0.000000
  Trans. dip. moment [a.u.]:           [   0.000000,    0.000000,   -0.000000]
  <i|r^2|0> [a.u.]:                    [  -0.000000,    0.000000,   -0.000000]

  V1^2 = 0.8205, V2^2 = 0.1795

  Important amplitudes:
     core i     occ j      vir a      vir b          v   
    ------------------------------------------------------
     1 (A) A              22 (A) A                -0.6325
     1 (A) B              22 (A) B                 0.6325
    ------------------------------------------------------
  ----------------------------------------------------------------------------


  Excited state  2 (A)                                             [converged]
  ----------------------------------------------------------------------------
  Term symbol:  3 (-) A                                     R^2 =  1.34342e-13

  Total energy:                                           -410.7288135598 a.u.
  Excitation energy:                                             690.628357 eV

  Osc. strength:                                                      0.015643
  Trans. dip. moment [a.u.]:           [  -0.019179,   -0.015942,    0.017395]
  <i|r^2|0> [a.u.]:                    [   0.073290,   -0.233028,    0.039709]

  V1^2 = 0.8142, V2^2 = 0.1858

  Important amplitudes:
     core i     occ j      vir a      vir b          v   
    ------------------------------------------------------
     1 (A) B              22 (A) B                 0.6331
     1 (A) A              22 (A) A                 0.6331
    ------------------------------------------------------
  ----------------------------------------------------------------------------


  Excited state  3 (A)                                             [converged]
  ----------------------------------------------------------------------------
  Term symbol:  4 (-) A                                     R^2 =  2.22576e-13

  Total energy:                                           -410.5161795691 a.u.
  Excitation energy:                                             696.414423 eV

  Osc. strength:                                                      0.000000
  Trans. dip. moment [a.u.]:           [  -0.000000,    0.000000,    0.000000]
  <i|r^2|0> [a.u.]:                    [   0.000000,    0.000000,    0.000000]

  V1^2 = 0.8459, V2^2 = 0.1541

  Important amplitudes:
     core i     occ j      vir a      vir b          v   
    ------------------------------------------------------
     1 (A) B              23 (A) B                 0.5907
     1 (A) A              23 (A) A                -0.5907
    ------------------------------------------------------
  ----------------------------------------------------------------------------


  Excited state  4 (A)                                             [converged]
  ----------------------------------------------------------------------------
  Term symbol:  5 (-) A                                     R^2 =  2.75735e-13

  Total energy:                                           -410.4829642896 a.u.
  Excitation energy:                                             697.318256 eV

  Osc. strength:                                                      0.021709
  Trans. dip. moment [a.u.]:           [  -0.010360,    0.026415,    0.021579]
  <i|r^2|0> [a.u.]:                    [   0.035803,    0.379887,    0.045828]

  V1^2 = 0.8307, V2^2 = 0.1693

  Important amplitudes:
     core i     occ j      vir a      vir b          v   
    ------------------------------------------------------
     1 (A) A              23 (A) A                 0.6149
     1 (A) B              23 (A) B                 0.6149
    ------------------------------------------------------
  ----------------------------------------------------------------------------


  Excited state  5 (A)                                             [converged]
  ----------------------------------------------------------------------------
  Term symbol:  6 (-) A                                     R^2 =  4.07572e-13

  Total energy:                                           -410.3281633011 a.u.
  Excitation energy:                                             701.530605 eV

  Osc. strength:                                                      0.000000
  Trans. dip. moment [a.u.]:           [  -0.000000,    0.000000,    0.000000]
  <i|r^2|0> [a.u.]:                    [   0.000000,    0.000000,    0.000000]

  V1^2 = 0.8037, V2^2 = 0.1963

  Important amplitudes:
     core i     occ j      vir a      vir b          v   
    ------------------------------------------------------
     1 (A) B              24 (A) B                 0.4897
     1 (A) A              24 (A) A                -0.4897
    ------------------------------------------------------
  ----------------------------------------------------------------------------


  Excited state  6 (A)                                             [converged]
  ----------------------------------------------------------------------------
  Term symbol:  7 (-) A                                     R^2 =  3.35491e-13

  Total energy:                                           -410.3219190020 a.u.
  Excitation energy:                                             701.700521 eV

  Osc. strength:                                                      0.000000
  Trans. dip. moment [a.u.]:           [   0.000000,   -0.000000,    0.000000]
  <i|r^2|0> [a.u.]:                    [  -0.000000,   -0.000000,    0.000000]

  V1^2 = 0.8158, V2^2 = 0.1842

  Important amplitudes:
     core i     occ j      vir a      vir b          v   
    ------------------------------------------------------
     1 (A) B              25 (A) B                -0.5185
     1 (A) A              25 (A) A                 0.5185
    ------------------------------------------------------
  ----------------------------------------------------------------------------


  Excited state  7 (A)                                             [converged]
  ----------------------------------------------------------------------------
  Term symbol:  8 (-) A                                     R^2 =  5.19677e-13

  Total energy:                                           -410.3162750638 a.u.
  Excitation energy:                                             701.854101 eV

  Osc. strength:                                                      0.014614
  Trans. dip. moment [a.u.]:           [   0.026251,   -0.009048,    0.008885]
  <i|r^2|0> [a.u.]:                    [  -0.100680,   -0.130128,    0.022095]

  V1^2 = 0.8120, V2^2 = 0.1880

  Important amplitudes:
     core i     occ j      vir a      vir b          v   
    ------------------------------------------------------
     1 (A) A              24 (A) A                -0.5697
     1 (A) B              24 (A) B                -0.5697
    ------------------------------------------------------
  ----------------------------------------------------------------------------


  Excited state  8 (A)                                             [converged]
  ----------------------------------------------------------------------------
  Term symbol:  9 (-) A                                     R^2 =  3.70355e-13

  Total energy:                                           -410.3106527162 a.u.
  Excitation energy:                                             702.007093 eV

  Osc. strength:                                                      0.012568
  Trans. dip. moment [a.u.]:           [  -0.005305,    0.004690,    0.026089]
  <i|r^2|0> [a.u.]:                    [   0.017467,    0.064816,    0.058245]

  V1^2 = 0.8062, V2^2 = 0.1938

  Important amplitudes:
     core i     occ j      vir a      vir b          v   
    ------------------------------------------------------
     1 (A) A              25 (A) A                -0.5513
     1 (A) B              25 (A) B                -0.5513
    ------------------------------------------------------
  ----------------------------------------------------------------------------


  Excited state  9 (A)                                             [converged]
  ----------------------------------------------------------------------------
  Term symbol:  10 (-) A                                    R^2 =  3.48869e-13

  Total energy:                                           -410.1719977731 a.u.
  Excitation energy:                                             705.780086 eV

  Osc. strength:                                                      0.000000
  Trans. dip. moment [a.u.]:           [  -0.000000,    0.000000,    0.000000]
  <i|r^2|0> [a.u.]:                    [   0.000000,    0.000000,    0.000000]

  V1^2 = 0.8285, V2^2 = 0.1715

  Important amplitudes:
     core i     occ j      vir a      vir b          v   
    ------------------------------------------------------
     1 (A) B              28 (A) B                 0.3924
     1 (A) A              28 (A) A                -0.3924
    ------------------------------------------------------
  ----------------------------------------------------------------------------


  Excited state 10 (A)                                             [converged]
  ----------------------------------------------------------------------------
  Term symbol:  11 (-) A                                    R^2 =  3.36761e-13

  Total energy:                                           -410.1602662164 a.u.
  Excitation energy:                                             706.099317 eV

  Osc. strength:                                                      0.015902
  Trans. dip. moment [a.u.]:           [   0.008918,   -0.022502,   -0.018258]
  <i|r^2|0> [a.u.]:                    [  -0.034186,   -0.326488,   -0.042930]

  V1^2 = 0.8222, V2^2 = 0.1778

  Important amplitudes:
     core i     occ j      vir a      vir b          v   
    ------------------------------------------------------
     1 (A) A              26 (A) A                 0.4106
     1 (A) B              26 (A) B                 0.4106
    ------------------------------------------------------
  ----------------------------------------------------------------------------


  Excited state 11 (A)                                             [converged]
  ----------------------------------------------------------------------------
  Term symbol:  12 (-) A                                    R^2 =  3.74096e-13

  Total energy:                                           -410.1287107755 a.u.
  Excitation energy:                                             706.957985 eV

  Osc. strength:                                                      0.000000
  Trans. dip. moment [a.u.]:           [  -0.000000,    0.000000,    0.000000]
  <i|r^2|0> [a.u.]:                    [   0.000000,    0.000000,    0.000000]

  V1^2 = 0.8031, V2^2 = 0.1969

  Important amplitudes:
     core i     occ j      vir a      vir b          v   
    ------------------------------------------------------
     1 (A) B              26 (A) B                 0.5236
     1 (A) A              26 (A) A                -0.5236
    ------------------------------------------------------
  ----------------------------------------------------------------------------


  Excited state 12 (A)                                             [converged]
  ----------------------------------------------------------------------------
  Term symbol:  13 (-) A                                    R^2 =  7.68811e-13

  Total energy:                                           -410.1245810924 a.u.
  Excitation energy:                                             707.070359 eV

  Osc. strength:                                                      0.006508
  Trans. dip. moment [a.u.]:           [   0.012858,   -0.003056,   -0.014179]
  <i|r^2|0> [a.u.]:                    [  -0.049840,   -0.044852,   -0.033873]

  V1^2 = 0.8055, V2^2 = 0.1945

  Important amplitudes:
     core i     occ j      vir a      vir b          v   
    ------------------------------------------------------
     1 (A) A              26 (A) A                -0.4684
     1 (A) B              26 (A) B                -0.4684
    ------------------------------------------------------
  ----------------------------------------------------------------------------


  Excited state 13 (A)                                             [converged]
  ----------------------------------------------------------------------------
  Term symbol:  14 (-) A                                    R^2 =  3.81332e-13

  Total energy:                                           -410.1112245214 a.u.
  Excitation energy:                                             707.433810 eV

  Osc. strength:                                                      0.000000
  Trans. dip. moment [a.u.]:           [  -0.000000,    0.000000,   -0.000000]
  <i|r^2|0> [a.u.]:                    [   0.000000,    0.000000,   -0.000000]

  V1^2 = 0.7968, V2^2 = 0.2032

  Important amplitudes:
     core i     occ j      vir a      vir b          v   
    ------------------------------------------------------
     1 (A) A              27 (A) A                -0.5933
     1 (A) B              27 (A) B                 0.5933
    ------------------------------------------------------
  ----------------------------------------------------------------------------


  Excited state 14 (A)                                             [converged]
  ----------------------------------------------------------------------------
  Term symbol:  15 (-) A                                    R^2 =  1.28112e-12

  Total energy:                                           -410.1109188581 a.u.
  Excitation energy:                                             707.442127 eV

  Osc. strength:                                                      0.001580
  Trans. dip. moment [a.u.]:           [  -0.004103,    0.000689,   -0.008595]
  <i|r^2|0> [a.u.]:                    [   0.015540,    0.009749,   -0.020078]

  V1^2 = 0.7966, V2^2 = 0.2034

  Important amplitudes:
     core i     occ j      vir a      vir b          v   
    ------------------------------------------------------
     1 (A) B              27 (A) B                -0.5821
     1 (A) A              27 (A) A                -0.5821
    ------------------------------------------------------
  ----------------------------------------------------------------------------


  Excited state 15 (A)                                             [converged]
  ----------------------------------------------------------------------------
  Term symbol:  16 (-) A                                    R^2 =  2.83648e-13

  Total energy:                                           -410.0517902350 a.u.
  Excitation energy:                                             709.051099 eV

  Osc. strength:                                                      0.000000
  Trans. dip. moment [a.u.]:           [  -0.000000,   -0.000000,    0.000000]
  <i|r^2|0> [a.u.]:                    [   0.000000,   -0.000000,    0.000000]

  V1^2 = 0.7836, V2^2 = 0.2164

  Important amplitudes:
     core i     occ j      vir a      vir b          v   
    ------------------------------------------------------
     1 (A) A              29 (A) A                 0.5204
     1 (A) B              29 (A) B                -0.5204
    ------------------------------------------------------
  ----------------------------------------------------------------------------


  Excited state 16 (A)                                             [converged]
  ----------------------------------------------------------------------------
  Term symbol:  17 (-) A                                    R^2 =  2.14297e-12

  Total energy:                                           -410.0513344412 a.u.
  Excitation energy:                                             709.063502 eV

  Osc. strength:                                                      0.000815
  Trans. dip. moment [a.u.]:           [   0.003591,    0.004417,   -0.003812]
  <i|r^2|0> [a.u.]:                    [  -0.013466,    0.064604,   -0.008038]

  V1^2 = 0.7834, V2^2 = 0.2166

  Important amplitudes:
     core i     occ j      vir a      vir b          v   
    ------------------------------------------------------
     1 (A) B              29 (A) B                -0.5240
     1 (A) A              29 (A) A                -0.5240
    ------------------------------------------------------
  ----------------------------------------------------------------------------


  Excited state 17 (A)                                             [converged]
  ----------------------------------------------------------------------------
  Term symbol:  18 (-) A                                    R^2 =  5.86725e-10

  Total energy:                                           -409.6072997758 a.u.
  Excitation energy:                                             721.146300 eV

  Osc. strength:                                                      0.000000
  Trans. dip. moment [a.u.]:           [   0.000000,    0.000000,   -0.000000]
  <i|r^2|0> [a.u.]:                    [  -0.000000,    0.000000,   -0.000000]

  V1^2 = 0.8725, V2^2 = 0.1275

  Important amplitudes:
     core i     occ j      vir a      vir b          v   
    ------------------------------------------------------
     1 (A) A              30 (A) A                -0.6435
     1 (A) B              30 (A) B                 0.6435
    ------------------------------------------------------
  ----------------------------------------------------------------------------


  Excited state 18 (A)                                             [converged]
  ----------------------------------------------------------------------------
  Term symbol:  19 (-) A                                    R^2 =  2.86178e-08

  Total energy:                                           -409.5659777420 a.u.
  Excitation energy:                                             722.270729 eV

  Osc. strength:                                                      0.038341
  Trans. dip. moment [a.u.]:           [   0.018325,   -0.028487,   -0.031928]
  <i|r^2|0> [a.u.]:                    [  -0.074352,   -0.416605,   -0.076765]

  V1^2 = 0.8683, V2^2 = 0.1317

  Important amplitudes:
     core i     occ j      vir a      vir b          v   
    ------------------------------------------------------
     1 (A) A              30 (A) A                 0.6487
     1 (A) B              30 (A) B                 0.6487
    ------------------------------------------------------
  ----------------------------------------------------------------------------


  Excited state 19 (A)                                             [converged]
  ----------------------------------------------------------------------------
  Term symbol:  20 (-) A                                    R^2 =  2.14739e-07

  Total energy:                                           -409.5603080791 a.u.
  Excitation energy:                                             722.425009 eV

  Osc. strength:                                                      0.000000
  Trans. dip. moment [a.u.]:           [  -0.000000,   -0.000000,    0.000000]
  <i|r^2|0> [a.u.]:                    [   0.000000,   -0.000001,    0.000000]

  V1^2 = 0.8818, V2^2 = 0.1182

  Important amplitudes:
     core i     occ j      vir a      vir b          v   
    ------------------------------------------------------
     1 (A) A              34 (A) A                -0.5291
     1 (A) B              34 (A) B                 0.5291
    ------------------------------------------------------
  ----------------------------------------------------------------------------


  Excited state 20 (A)                                         [not converged]
  ----------------------------------------------------------------------------
  Term symbol:  21 (-) A                                    R^2 =  3.75938e-05

  Total energy:                                           -409.5257870437 a.u.
  Excitation energy:                                             723.364374 eV


  V1^2 = 0.8519, V2^2 = 0.1481

  Important amplitudes:
     core i     occ j      vir a      vir b          v   
    ------------------------------------------------------
     1 (A) B              31 (A) B                 0.3958
     1 (A) A              31 (A) A                -0.3957
    ------------------------------------------------------
  ----------------------------------------------------------------------------


--------------------------------------------------------------------------------
  Time of ADC calculation:  CPU 1166.32 s  wall 214.21 s
================================================================================
 
 --------------------------------------------------------------
 
                    Orbital Energies (a.u.)
 --------------------------------------------------------------
 
 Alpha MOs
 -- Occupied --
-26.608 -26.602 -26.593 -25.868 -11.806  -2.019  -1.918  -1.907
 -1.180  -1.132  -1.094  -1.090  -1.038  -0.928  -0.923  -0.904
 -0.892  -0.876  -0.243  -0.243  -0.232
 -- Virtual --
 -0.091   0.182   0.325   0.328   0.482   0.543   0.549   0.572
  1.141   1.150   1.164   1.257   1.257   1.383   1.422   1.424
  1.430   1.439   1.450   1.477   1.552   1.783   1.789   1.823
  1.830   1.831   1.887   1.896   1.925   2.016   2.024   2.066
  2.088   2.097   2.153   2.190   2.485   2.490   2.490   2.493
  2.493   2.498   2.782   2.790   3.099   3.108   3.330   3.332
  3.339   4.112   4.323   4.772   4.860   4.872
 
 Beta MOs
 -- Occupied --
-26.608 -26.602 -26.593 -25.868 -11.806  -2.019  -1.918  -1.907
 -1.180  -1.132  -1.094  -1.090  -1.038  -0.928  -0.923  -0.904
 -0.892  -0.876  -0.243  -0.243  -0.232
 -- Virtual --
 -0.091   0.182   0.325   0.328   0.482   0.543   0.549   0.572
  1.141   1.150   1.164   1.257   1.257   1.383   1.422   1.424
  1.430   1.439   1.450   1.477   1.552   1.783   1.789   1.823
  1.830   1.831   1.887   1.896   1.925   2.016   2.024   2.066
  2.088   2.097   2.153   2.190   2.485   2.490   2.490   2.493
  2.493   2.498   2.782   2.790   3.099   3.108   3.330   3.332
  3.339   4.112   4.323   4.772   4.860   4.872
 --------------------------------------------------------------
 
          Ground-State Mulliken Net Atomic Charges

     Atom                 Charge (a.u.)    Spin (a.u.)
  --------------------------------------------------------
      1 C                     1.231197       0.000000
      2 F                    -0.082155       0.000000
      3 F                    -0.100583       0.000000
      4 F                    -0.948924       0.000000
      5 F                    -0.099535       0.000000
  --------------------------------------------------------
  Sum of atomic charges =     0.000000
  Sum of spin   charges =     0.000000

 -----------------------------------------------------------------
                    Cartesian Multipole Moments
 -----------------------------------------------------------------
    Charge (ESU x 10^10)
                 0.0000
    Dipole Moment (Debye)
         X       3.7380      Y      15.9081      Z      -4.8673
       Tot      17.0509
    Quadrupole Moments (Debye-Ang)
        XX     -28.6763     XY      -8.3348     YY      22.7925
        XZ       5.1400     YZ      -2.7471     ZZ     -24.9692
    Octopole Moments (Debye-Ang^2)
       XXX      57.6569    XXY     -44.2528    XYY      -2.4614
       YYY      -2.8588    XXZ      -6.9575    XYZ      -0.5725
       YYZ     -14.3452    XZZ      19.3578    YZZ     -47.4840
       ZZZ      -5.1011
    Hexadecapole Moments (Debye-Ang^3)
      XXXX    -150.3386   XXXY      82.5633   XXYY    -183.7127
      XYYY      28.5769   YYYY    -536.1449   XXXZ      13.4437
      XXYZ      12.8421   XYYZ       4.0276   YYYZ     -10.8624
      XXZZ     -41.5676   XYZZ      25.8999   YYZZ    -178.3783
      XZZZ       9.1790   YZZZ      32.8142   ZZZZ     -90.0105
 -----------------------------------------------------------------
Archival summary:
1\1\tp-linux1\SP\HF\6-31G*\41\thomas\TueMar1421:47:432017TueMar1421:47:432017\0\\#,HF,6-31G*,\\0,1\C\F,1,1.2229\F,1,1.22977,2,117.952\F,1,1.23334,2,118.898,3,157.031,0\F,4,3.4109,1,98.3354,2,-88.5289,0\\HF=-435.292078\\@

 Total job time:  217.60s(wall), 1180.29s(cpu) 
 Tue Mar 14 21:47:43 2017

        *************************************************************
        *                                                           *
        *  Thank you very much for using Q-Chem.  Have a nice day.  *
        *                                                           *
        *************************************************************


0 sent ACK to 0 
now end server 0 ... 
cleanup process ... done
