
Running Job 1 of 2 ddtraj4t12.inp
qchem ddtraj4t12.inp_29311.0 /scratch/qchem/qchem29311/ 1
/mnt/software/qchem/bin/mpi/mpirun_qchem -machinefile /mnt/software/qchem/bin/mpi/machines -np 1 /mnt/software/qchem/exe/qcprog.exe ddtraj4t12.inp_29311.0 /scratch/qchem/qchem29311/

Process 0 of 1 is on tp-linux1 - thread support 0
initial socket setup ...start
initial socket setup ...done 
now start server 0 ... 

cmd = ssh tp-linux1 /mnt/software/qchem/bin/get_hostid 276551358 > /scratch/qchem/qchem29311/lic.dat
                  Welcome to Q-Chem
     A Quantum Leap Into The Future Of Chemistry


 Q-Chem 4.3, Q-Chem, Inc., Pleasanton, CA (2015)

 Y. Shao,  Z. Gan,  E. Epifanovsky,  A. T. B. Gilbert,  M. Wormit,  
 J. Kussmann,  A. W. Lange,  A. Behn,  J. Deng,  X. Feng,  D. Ghosh,  
 M. Goldey,  P. R. Horn,  L. D. Jacobson,  I. Kaliman,  R. Z. Khaliullin,  
 T. Kus,  A. Landau,  J. Liu,  E. I. Proynov,  Y. M. Rhee,  R. M. Richard,  
 M. A. Rohrdanz,  R. P. Steele,  E. J. Sundstrom,  H. L. Woodcock III,  
 P. M. Zimmerman,  D. Zuev,  B. Albrecht,  E. Alguire,  B. Austin,  
 S. A. Baeppler,  G. J. O. Beran,  Y. A. Bernard,  E. Berquist,  
 K. Brandhorst,  K. B. Bravaya,  S. T. Brown,  D. Casanova,  C.-M. Chang,  
 Y. Chen,  S. H. Chien,  K. D. Closser,  D. L. Crittenden,  M. Diedenhofen,  
 R. A. DiStasio Jr.,  H. Do,  A. D. Dutoi,  R. G. Edgar,  P.-T. Fang,  
 S. Fatehi,  Q. Feng,  L. Fusti-Molnar,  A. Ghysels,  
 A. Golubeva-Zadorozhnaya,  J. Gomes,  A. Gunina,  M. W. D. Hanson-Heine,  
 P. H. P. Harbach,  A. W. Hauser,  E. G. Hohenstein,  Z. C. Holden,  K. Hui,  
 T.-C. Jagau,  H. Ji,  B. Kaduk,  K. Khistyaev,  Jaehoon Kim,  Jihan Kim,  
 R. A. King,  P. Klunzinger,  D. Kosenkov,  T. Kowalczyk,  C. M. Krauter,  
 K. U. Lao,  A. Laurent,  K. V. Lawler,  S. Lehtola,  S. V. Levchenko,  
 C. Y. Lin,  Y.-S. Lin,  F. Liu,  E. Livshits,  R. C. Lochan,  A. Luenser,  
 P. Manohar,  S. F. Manzer,  S.-P. Mao,  N. Mardirossian,  A. V. Marenich,  
 L. A. Martinez-Martinez,  S. A. Maurer,  N. J. Mayhall,  K. Nanda,  
 C. M. Oana,  R. Olivares-Amaya,  D. P. O'Neill,  J. A. Parkhill,  
 T. M. Perrine,  R. Peverati,  P. A. Pieniazek,  F. Plasser,  A. Prociuk,  
 D. R. Rehn,  E. Rosta,  N. J. Russ,  N. Sergueev,  S. M. Sharada,  
 S. Sharma,  D. W. Small,  A. Sodt,  T. Stauch,  T. Stein,  D. Stuck,  
 Y.-C. Su,  A. J. W. Thom,  T. Tsuchimochi,  L. Vogt,  O. Vydrov,  T. Wang,  
 M. A. Watson,  J. Wenzel,  A. White,  C. F. Williams,  V. Vanovschi,  
 S. Yeganeh,  S. R. Yost,  Z.-Q. You,  I. Y. Zhang,  X. Zhang,  Y. Zhao,  
 B. R. Brooks,  G. K. L. Chan,  D. M. Chipman,  C. J. Cramer,  
 W. A. Goddard III,  M. S. Gordon,  W. J. Hehre,  A. Klamt,  
 H. F. Schaefer III,  M. W. Schmidt,  C. D. Sherrill,  D. G. Truhlar,  
 A. Warshel,  X. Xu,  A. Aspuru-Guzik,  R. Baer,  A. T. Bell,  N. A. Besley,  
 J.-D. Chai,  A. Dreuw,  B. D. Dunietz,  T. R. Furlani,  S. R. Gwaltney,  
 C.-P. Hsu,  Y. Jung,  J. Kong,  D. S. Lambrecht,  W. Liang,  C. Ochsenfeld,  
 V. A. Rassolov,  L. V. Slipchenko,  J. E. Subotnik,  T. Van Voorhis,  
 J. M. Herbert,  A. I. Krylov,  P. M. W. Gill,  M. Head-Gordon

 Contributors to earlier versions of Q-Chem not listed above: 
 R. D. Adamson,  J. Baker,  E. F. C. Byrd,  A. K. Chakraborty,  C.-L. Cheng,  
 H. Dachsel,  R. J. Doerksen,  G. Hawkins,  A. Heyden,  S. Hirata,  
 G. Kedziora,  F. J. Keil,  C. Kelley,  P. P. Korambath,  W. Kurlancheek,  
 A. M. Lee,  M. S. Lee,  D. Liotard,  I. Lotan,  P. E. Maslen,  N. Nair,  
 D. Neuhauser,  R. Olson,  B. Peters,  J. Ritchie,  N. E. Schultz,  
 N. Shenvi,  A. C. Simmonett,  K. S. Thanthiriwatte,  Q. Wu,  W. Zhang

 Please cite Q-Chem as follows:
 Y. Shao et al., Mol. Phys. 113, 184-215 (2015)
 DOI: 10.1080/00268976.2014.952696

 Q-Chem 4.3.0 for Intel X86 Linux

 Parts of Q-Chem use Armadillo 5.200.1 (Boston Tea Smuggler).
 http://arma.sourceforge.net/

 Q-Chem begins on Sun Mar 19 07:19:01 2017  

Host: 
0

     Scratch files written to /scratch/qchem/qchem29311//
 Nov1815 1189b_ 19540  19532 5443   
 Parallel job on  1  processors
Processing $rem in /mnt/software/qchem/config/preferences.
 MEM_TOTAL  2000 

Checking the input file for inconsistencies... 	...done.

--------------------------------------------------------------
User input:
--------------------------------------------------------------
$comment
XAS calculation for the 2b valence excited for water using cvs-adc(2)-x + 6-311+G* basis set
job 1 - determination of HF orbitals
$end

$molecule
0 1
6  -0.493377  2.742033  -0.162343
9  0.615583  2.34829  -0.011473
9  -1.14442  3.199129  0.794795
9  -1.253511  1.05721  0.528602
9  -1.128191  2.5332  -1.210563
$end

$rem
jobtype      sp
sym_ignore true
exchange     hf
basis        6-31G*
unrestricted true
$end

--------------------------------------------------------------
 ----------------------------------------------------------------
             Standard Nuclear Orientation (Angstroms)
    I     Atom           X                Y                Z
 ----------------------------------------------------------------
    1      C      -0.4933770000     2.7420330000    -0.1623430000
    2      F       0.6155830000     2.3482900000    -0.0114730000
    3      F      -1.1444200000     3.1991290000     0.7947950000
    4      F      -1.2535110000     1.0572100000     0.5286020000
    5      F      -1.1281910000     2.5332000000    -1.2105630000
 ----------------------------------------------------------------
 Nuclear Repulsion Energy =   202.1996345128 hartrees
 There are       21 alpha and       21 beta electrons
 Requested basis set is 6-31G(d)
 There are 20 shells and 75 basis functions

 Total QAlloc Memory Limit   2000 MB
 Mega-Array Size        61 MB
 MEM_STATIC part        62 MB

                       Distance Matrix (Angstroms)
             C (  1)   F (  2)   F (  3)   F (  4)
   F (  2)  1.186418
   F (  3)  1.244551  2.114617
   F (  4)  1.973281  2.334969  2.161152
   F (  5)  1.243127  2.124325  2.113099  2.284501
 
 tim1(1): 
  0.000000000000000E+000
 tim1(2): 
  0.000000000000000E+000
 A cutoff of  1.0D-08 yielded    197 shell pairs
 There are      2954 function pairs
 
 -------------------------------------------------------
 OpenMP Integral Computing Module                       
 Release: version 1.0, May 2013, Q-Chem Inc. Pittsburgh 
 -------------------------------------------------------
 Integral Job Info:
 Integral job number is                      11
 Integral operator is                         1
 short-range coefficients                     0
 long-range coefficients              100000000
 Omega coefficients                           0
 if combine SR and LR in K                    0
 Integral screening is                        0
 Integral computing path is                   2
 max size of driver memory is            800000
 size of driver memory is                593474
 size of scratch memory is              2260544
 max col of scratch BK array               1296
 max len of scratch array in speh3          155
 max len of scratch index in speh4           18
 max int batch size is                      520
 min int batch size is                       52
 fixed nKL is                                52
 max L of basis functions is                  2
 order of int derivative is                   0
 number of shells is                         20
 number of basis is                          75
 number of cartesian basis is                75
 number of contracted shell pairs           197
 number of primitive shell pairs            968
 maxK2 (contraction) of shell pair           36
 max number of K2 of shell pair               1
 max number of CS2 of shell pair             28
 max number of PS2 of shell pair            180
 mem total for path MDJ                   21832
 -------------------------------------------------------
 Smallest overlap matrix eigenvalue = 1.44E-03

 Scale SEOQF with 1.000000e+00/1.000000e-01/1.000000e+00

 Standard Electronic Orientation quadrupole field applied
 Nucleus-field energy     =     0.0000000102 hartrees
 Guess from superposition of atomic densities
 Warning:  Energy on first SCF cycle will be non-variational
 An unrestricted Hartree-Fock SCF calculation will be
 performed using Pulay DIIS extrapolation
 SCF converges when DIIS error is below 1.0E-05
 using 8 threads for integral computing 
 ---------------------------------------
  Cycle       Energy         DIIS Error
 ---------------------------------------
    1    -436.4809583857      9.19E-02
    2    -435.2100633519      2.06E-02
    3    -435.3722142800      1.26E-02
    4    -435.4435283924      1.27E-03
    5    -435.4445561841      3.71E-04
    6    -435.4446867075      1.09E-04
    7    -435.4446969840      3.89E-05
    8    -435.4446985692      7.42E-06 Convergence criterion met
 ---------------------------------------
 <S^2> = 0.0000
 SCF time:  CPU 8.60 s  wall 1.91 s
 SCF   energy in the final basis set = -435.4446985692
 Total energy in the final basis set = -435.4446985692
 
 --------------------------------------------------------------
 
                    Orbital Energies (a.u.)
 --------------------------------------------------------------
 
 Alpha MOs
 -- Occupied --
-26.502 -26.469 -26.458 -26.066 -11.688  -1.913  -1.815  -1.778
 -1.332  -1.073  -0.988  -0.980  -0.926  -0.816  -0.813  -0.805
 -0.781  -0.759  -0.429  -0.427  -0.420
 -- Virtual --
  0.057   0.348   0.434   0.461   0.600   0.642   0.698   0.795
  1.208   1.242   1.251   1.321   1.330   1.431   1.493   1.496
  1.527   1.545   1.551   1.575   1.678   1.740   1.755   1.920
  1.940   1.982   1.997   2.037   2.082   2.116   2.164   2.173
  2.200   2.260   2.293   2.349   2.351   2.416   2.461   2.573
  2.633   2.932   2.982   3.067   3.221   3.275   3.468   3.499
  3.550   4.280   4.620   5.066   5.231   6.909
 
 Beta MOs
 -- Occupied --
-26.502 -26.469 -26.458 -26.066 -11.688  -1.913  -1.815  -1.778
 -1.332  -1.073  -0.988  -0.980  -0.926  -0.816  -0.813  -0.805
 -0.781  -0.759  -0.429  -0.427  -0.420
 -- Virtual --
  0.057   0.348   0.434   0.461   0.600   0.642   0.698   0.795
  1.208   1.242   1.251   1.321   1.330   1.431   1.493   1.496
  1.527   1.545   1.551   1.575   1.678   1.740   1.755   1.920
  1.940   1.982   1.997   2.037   2.082   2.116   2.164   2.173
  2.200   2.260   2.293   2.349   2.351   2.416   2.461   2.573
  2.633   2.932   2.982   3.067   3.221   3.275   3.468   3.499
  3.550   4.280   4.620   5.066   5.231   6.909
 --------------------------------------------------------------
 
          Ground-State Mulliken Net Atomic Charges

     Atom                 Charge (a.u.)    Spin (a.u.)
  --------------------------------------------------------
      1 C                     1.200493       0.000000
      2 F                    -0.108089       0.000000
      3 F                    -0.168681       0.000000
      4 F                    -0.747052       0.000000
      5 F                    -0.176671       0.000000
  --------------------------------------------------------
  Sum of atomic charges =     0.000000
  Sum of spin   charges =     0.000000

 -----------------------------------------------------------------
                    Cartesian Multipole Moments
 -----------------------------------------------------------------
    Charge (ESU x 10^10)
                 0.0000
    Dipole Moment (Debye)
         X       2.8945      Y       5.7362      Z      -2.3491
       Tot       6.8411
    Quadrupole Moments (Debye-Ang)
        XX     -27.7648     XY       1.0632     YY      -0.7226
        XZ       2.3578     YZ      -3.7884     ZZ     -24.1485
    Octopole Moments (Debye-Ang^2)
       XXX      55.3105    XXY     -58.2552    XYY      12.2987
       YYY     -90.3809    XXZ      -2.8223    XYZ       2.8010
       YYZ      -8.5772    XZZ      17.4329    YZZ     -55.1756
       ZZZ      -0.6994
    Hexadecapole Moments (Debye-Ang^3)
      XXXX    -156.1864   XXXY     114.0637   XXYY    -169.1112
      XYYY      90.7498   YYYY    -626.8493   XXXZ       6.8883
      XXYZ      -1.0743   XYYZ       4.8935   YYYZ     -19.9559
      XXZZ     -38.6313   XYZZ      37.2542   YYZZ    -155.7341
      XZZZ       3.8457   YZZZ       5.3560   ZZZZ     -78.7422
 -----------------------------------------------------------------
Archival summary:
1\1\tp-linux1\SP\HF\6-31G*\41\thomas\SunMar1907:19:042017SunMar1907:19:042017\0\\#,HF,6-31G*,\\0,1\C\F,1,1.18642\F,1,1.24313,2,121.924\F,1,1.24455,2,120.868,3,-168.677,0\F,1,1.97328,2,91.8439,3,-88.1166,0\\HF=-435.444699\\@

 Total job time:  2.23s(wall), 10.32s(cpu) 
 Sun Mar 19 07:19:04 2017

        *************************************************************
        *                                                           *
        *  Thank you very much for using Q-Chem.  Have a nice day.  *
        *                                                           *
        *************************************************************


0 sent ACK to 0 
now end server 0 ... 
cleanup process ... done

Running Job 2 of 2 ddtraj4t12.inp
qchem ddtraj4t12.inp_29311.1 /scratch/qchem/qchem29311/ 1
/mnt/software/qchem/bin/mpi/mpirun_qchem -machinefile /mnt/software/qchem/bin/mpi/machines -np 1 /mnt/software/qchem/exe/qcprog.exe ddtraj4t12.inp_29311.1 /scratch/qchem/qchem29311/

Process 0 of 1 is on tp-linux1 - thread support 0
initial socket setup ...start
initial socket setup ...done 
now start server 0 ... 

cmd = ssh tp-linux1 /mnt/software/qchem/bin/get_hostid 898161350 > /scratch/qchem/qchem29311/lic.dat
                  Welcome to Q-Chem
     A Quantum Leap Into The Future Of Chemistry


 Q-Chem 4.3, Q-Chem, Inc., Pleasanton, CA (2015)

 Y. Shao,  Z. Gan,  E. Epifanovsky,  A. T. B. Gilbert,  M. Wormit,  
 J. Kussmann,  A. W. Lange,  A. Behn,  J. Deng,  X. Feng,  D. Ghosh,  
 M. Goldey,  P. R. Horn,  L. D. Jacobson,  I. Kaliman,  R. Z. Khaliullin,  
 T. Kus,  A. Landau,  J. Liu,  E. I. Proynov,  Y. M. Rhee,  R. M. Richard,  
 M. A. Rohrdanz,  R. P. Steele,  E. J. Sundstrom,  H. L. Woodcock III,  
 P. M. Zimmerman,  D. Zuev,  B. Albrecht,  E. Alguire,  B. Austin,  
 S. A. Baeppler,  G. J. O. Beran,  Y. A. Bernard,  E. Berquist,  
 K. Brandhorst,  K. B. Bravaya,  S. T. Brown,  D. Casanova,  C.-M. Chang,  
 Y. Chen,  S. H. Chien,  K. D. Closser,  D. L. Crittenden,  M. Diedenhofen,  
 R. A. DiStasio Jr.,  H. Do,  A. D. Dutoi,  R. G. Edgar,  P.-T. Fang,  
 S. Fatehi,  Q. Feng,  L. Fusti-Molnar,  A. Ghysels,  
 A. Golubeva-Zadorozhnaya,  J. Gomes,  A. Gunina,  M. W. D. Hanson-Heine,  
 P. H. P. Harbach,  A. W. Hauser,  E. G. Hohenstein,  Z. C. Holden,  K. Hui,  
 T.-C. Jagau,  H. Ji,  B. Kaduk,  K. Khistyaev,  Jaehoon Kim,  Jihan Kim,  
 R. A. King,  P. Klunzinger,  D. Kosenkov,  T. Kowalczyk,  C. M. Krauter,  
 K. U. Lao,  A. Laurent,  K. V. Lawler,  S. Lehtola,  S. V. Levchenko,  
 C. Y. Lin,  Y.-S. Lin,  F. Liu,  E. Livshits,  R. C. Lochan,  A. Luenser,  
 P. Manohar,  S. F. Manzer,  S.-P. Mao,  N. Mardirossian,  A. V. Marenich,  
 L. A. Martinez-Martinez,  S. A. Maurer,  N. J. Mayhall,  K. Nanda,  
 C. M. Oana,  R. Olivares-Amaya,  D. P. O'Neill,  J. A. Parkhill,  
 T. M. Perrine,  R. Peverati,  P. A. Pieniazek,  F. Plasser,  A. Prociuk,  
 D. R. Rehn,  E. Rosta,  N. J. Russ,  N. Sergueev,  S. M. Sharada,  
 S. Sharma,  D. W. Small,  A. Sodt,  T. Stauch,  T. Stein,  D. Stuck,  
 Y.-C. Su,  A. J. W. Thom,  T. Tsuchimochi,  L. Vogt,  O. Vydrov,  T. Wang,  
 M. A. Watson,  J. Wenzel,  A. White,  C. F. Williams,  V. Vanovschi,  
 S. Yeganeh,  S. R. Yost,  Z.-Q. You,  I. Y. Zhang,  X. Zhang,  Y. Zhao,  
 B. R. Brooks,  G. K. L. Chan,  D. M. Chipman,  C. J. Cramer,  
 W. A. Goddard III,  M. S. Gordon,  W. J. Hehre,  A. Klamt,  
 H. F. Schaefer III,  M. W. Schmidt,  C. D. Sherrill,  D. G. Truhlar,  
 A. Warshel,  X. Xu,  A. Aspuru-Guzik,  R. Baer,  A. T. Bell,  N. A. Besley,  
 J.-D. Chai,  A. Dreuw,  B. D. Dunietz,  T. R. Furlani,  S. R. Gwaltney,  
 C.-P. Hsu,  Y. Jung,  J. Kong,  D. S. Lambrecht,  W. Liang,  C. Ochsenfeld,  
 V. A. Rassolov,  L. V. Slipchenko,  J. E. Subotnik,  T. Van Voorhis,  
 J. M. Herbert,  A. I. Krylov,  P. M. W. Gill,  M. Head-Gordon

 Contributors to earlier versions of Q-Chem not listed above: 
 R. D. Adamson,  J. Baker,  E. F. C. Byrd,  A. K. Chakraborty,  C.-L. Cheng,  
 H. Dachsel,  R. J. Doerksen,  G. Hawkins,  A. Heyden,  S. Hirata,  
 G. Kedziora,  F. J. Keil,  C. Kelley,  P. P. Korambath,  W. Kurlancheek,  
 A. M. Lee,  M. S. Lee,  D. Liotard,  I. Lotan,  P. E. Maslen,  N. Nair,  
 D. Neuhauser,  R. Olson,  B. Peters,  J. Ritchie,  N. E. Schultz,  
 N. Shenvi,  A. C. Simmonett,  K. S. Thanthiriwatte,  Q. Wu,  W. Zhang

 Please cite Q-Chem as follows:
 Y. Shao et al., Mol. Phys. 113, 184-215 (2015)
 DOI: 10.1080/00268976.2014.952696

 Q-Chem 4.3.0 for Intel X86 Linux

 Parts of Q-Chem use Armadillo 5.200.1 (Boston Tea Smuggler).
 http://arma.sourceforge.net/

 Q-Chem begins on Sun Mar 19 07:19:06 2017  

Host: 
0

     Scratch files written to /scratch/qchem/qchem29311//
 Nov1815 1189b_ 19540  19532 5443   
 Parallel job on  1  processors
Processing $rem in /mnt/software/qchem/config/preferences.
 MEM_TOTAL  2000 

Checking the input file for inconsistencies... 	...done.

--------------------------------------------------------------
User input:
--------------------------------------------------------------

$comment
job3 - cvs-adc(2) calculation
$end

$molecule
read
$end

$rem
mem_total 3000
mem_static 1500
sym_ignore true
scf_guess read
method cvs-adc(2)
basis 6-31G*
ee_singlets 20
cc_rest_occ 5                  !only excitations from the lowest N orbitals
unrestricted  true
max_scf_cycles 200
$end
--------------------------------------------------------------
 ----------------------------------------------------------------
             Standard Nuclear Orientation (Angstroms)
    I     Atom           X                Y                Z
 ----------------------------------------------------------------
    1      C      -0.4933770000     2.7420330000    -0.1623430000
    2      F       0.6155830000     2.3482900000    -0.0114730000
    3      F      -1.1444200000     3.1991290000     0.7947950000
    4      F      -1.2535110000     1.0572100000     0.5286020000
    5      F      -1.1281910000     2.5332000000    -1.2105630000
 ----------------------------------------------------------------
 Nuclear Repulsion Energy =   202.1996345128 hartrees
 There are       21 alpha and       21 beta electrons
 Requested basis set is 6-31G(d)
 There are 20 shells and 75 basis functions

 Total QAlloc Memory Limit   3000 MB
 Mega-Array Size      1467 MB
 MEM_STATIC part      1500 MB

                       Distance Matrix (Angstroms)
             C (  1)   F (  2)   F (  3)   F (  4)
   F (  2)  1.186418
   F (  3)  1.244551  2.114617
   F (  4)  1.973281  2.334969  2.161152
   F (  5)  1.243127  2.124325  2.113099  2.284501
 
 tim1(1): 
  0.000000000000000E+000
 tim1(2): 
  0.000000000000000E+000
 A cutoff of  1.0D-11 yielded    203 shell pairs
 There are      2978 function pairs
 
 -------------------------------------------------------
 OpenMP Integral Computing Module                       
 Release: version 1.0, May 2013, Q-Chem Inc. Pittsburgh 
 -------------------------------------------------------
 Integral Job Info:
 Integral job number is                      11
 Integral operator is                         1
 short-range coefficients                     0
 long-range coefficients              100000000
 Omega coefficients                           0
 if combine SR and LR in K                    0
 Integral screening is                        0
 Integral computing path is                   2
 max size of driver memory is            800000
 size of driver memory is                593474
 size of scratch memory is              2260544
 max col of scratch BK array               1296
 max len of scratch array in speh3          155
 max len of scratch index in speh4           18
 max int batch size is                      520
 min int batch size is                       52
 fixed nKL is                                52
 max L of basis functions is                  2
 order of int derivative is                   0
 number of shells is                         20
 number of basis is                          75
 number of cartesian basis is                75
 number of contracted shell pairs           203
 number of primitive shell pairs           1064
 maxK2 (contraction) of shell pair           36
 max number of K2 of shell pair               1
 max number of CS2 of shell pair             36
 max number of PS2 of shell pair            216
 mem total for path MDJ                   21832
 -------------------------------------------------------
 Smallest overlap matrix eigenvalue = 1.44E-03

 Scale SEOQF with 1.000000e+00/1.000000e-01/1.000000e+00

 Standard Electronic Orientation quadrupole field applied
 Nucleus-field energy     =     0.0000000102 hartrees
 Guess MOs from SCF MO coefficient file
 Reading MOs from coefficient file
 Reading MOs from coefficient file
 An unrestricted Hartree-Fock SCF calculation will be
 performed using Pulay DIIS extrapolation
 SCF converges when DIIS error is below 1.0E-08
 using 8 threads for integral computing 
 ---------------------------------------
  Cycle       Energy         DIIS Error
 ---------------------------------------
    1    -435.4446985329      1.74E-06
    2    -435.4446985376      8.24E-07
    3    -435.4446985387      4.09E-07
    4    -435.4446985389      7.42E-08
    5    -435.4446985389      2.26E-08
    6    -435.4446985389      5.53E-09 Convergence criterion met
 ---------------------------------------
 <S^2> = 0.0000
 SCF time:  CPU 5.39 s  wall 1.61 s
 SCF   energy in the final basis set = -435.4446985389
 Total energy in the final basis set = -435.4446985389
================================================================================
|                                                                              |
|                                 A D C  M A N                                 |
|                                                                              |
 ------------------------------------------------------------------------------ 
|                                                                              |
| Components:                                                                  |
|                                                                              |
| - libvmm - 1.2-release                                                       |
|   Authors:                                                                   |
|   Evgeny Epifanovsky, Ilya Kaliman                                           |
|                                                                              |
| - libtensor - 2.4-trunk                                                      |
|   Authors:                                                                   |
|   Evgeny Epifanovsky, Michael Wormit, Dmitry Zuev, Sam Manzer                |
|                                                                              |
| - libwfa - 1.1-beta                                                          |
|   Authors:                                                                   |
|   Felix Plasser, Stefanie Baeppler, Benjamin Thomitzni, Michael Wormit       |
|                                                                              |
| - libadc - 1.0-beta                                                          |
|   Authors:                                                                   |
|   Michael Wormit, Philipp H. P. Harbach, Caroline Krauter, Dirk Rehn,        |
|   Matthias Schneider, Jan Wenzel                                             |
|                                                                              |
| - adcman - 2.4-beta                                                          |
|   Authors:                                                                   |
|   Michael Wormit, Philipp H. P. Harbach, Caroline Krauter, Dirk Rehn,        |
|   Jan Wenzel, Andreas Dreuw                                                  |
|                                                                              |
| Authors of earlier versions of ADCMAN:                                       |
| Andreas Dreuw, Jan Hendrik Starcke, Dirk Rehn, Michael Wormit                |
|                                                                              |
================================================================================

 
 Alpha MOs, Unrestricted
 -- Occupied --                  
-26.502 -26.469 -26.458 -26.066 -11.688  -1.913  -1.815  -1.778
  1 A     2 A     3 A     4 A     5 A     6 A     7 A     8 A                  
 -1.332  -1.073  -0.988  -0.980  -0.926  -0.816  -0.813  -0.805
  9 A    10 A    11 A    12 A    13 A    14 A    15 A    16 A                  
 -0.781  -0.759  -0.429  -0.427  -0.420
 17 A    18 A    19 A    20 A    21 A                                          
 -- Virtual --                   
  0.057   0.348   0.434   0.461   0.600   0.642   0.698   0.795
 22 A    23 A    24 A    25 A    26 A    27 A    28 A    29 A                  
  1.208   1.242   1.251   1.321   1.330   1.431   1.493   1.496
 30 A    31 A    32 A    33 A    34 A    35 A    36 A    37 A                  
  1.527   1.545   1.551   1.575   1.678   1.740   1.755   1.920
 38 A    39 A    40 A    41 A    42 A    43 A    44 A    45 A                  
  1.940   1.982   1.997   2.037   2.082   2.116   2.164   2.173
 46 A    47 A    48 A    49 A    50 A    51 A    52 A    53 A                  
  2.200   2.260   2.293   2.349   2.351   2.416   2.461   2.573
 54 A    55 A    56 A    57 A    58 A    59 A    60 A    61 A                  
  2.633   2.932   2.982   3.067   3.221   3.275   3.468   3.499
 62 A    63 A    64 A    65 A    66 A    67 A    68 A    69 A                  
  3.550   4.280   4.620   5.066   5.231   6.909
 70 A    71 A    72 A    73 A    74 A    75 A                                  
 
 Beta MOs, Unrestricted
 -- Occupied --                  
-26.502 -26.469 -26.458 -26.066 -11.688  -1.913  -1.815  -1.778
  1 A     2 A     3 A     4 A     5 A     6 A     7 A     8 A                  
 -1.332  -1.073  -0.988  -0.980  -0.926  -0.816  -0.813  -0.805
  9 A    10 A    11 A    12 A    13 A    14 A    15 A    16 A                  
 -0.781  -0.759  -0.429  -0.427  -0.420
 17 A    18 A    19 A    20 A    21 A                                          
 -- Virtual --                   
  0.057   0.348   0.434   0.461   0.600   0.642   0.698   0.795
 22 A    23 A    24 A    25 A    26 A    27 A    28 A    29 A                  
  1.208   1.242   1.251   1.321   1.330   1.431   1.493   1.496
 30 A    31 A    32 A    33 A    34 A    35 A    36 A    37 A                  
  1.527   1.545   1.551   1.575   1.678   1.740   1.755   1.920
 38 A    39 A    40 A    41 A    42 A    43 A    44 A    45 A                  
  1.940   1.982   1.997   2.037   2.082   2.116   2.164   2.173
 46 A    47 A    48 A    49 A    50 A    51 A    52 A    53 A                  
  2.200   2.260   2.293   2.349   2.351   2.416   2.461   2.573
 54 A    55 A    56 A    57 A    58 A    59 A    60 A    61 A                  
  2.633   2.932   2.982   3.067   3.221   3.275   3.468   3.499
 62 A    63 A    64 A    65 A    66 A    67 A    68 A    69 A                  
  3.550   4.280   4.620   5.066   5.231   6.909
 70 A    71 A    72 A    73 A    74 A    75 A                                  
 

--------------------------------------------------------------------------------
                                   HF Summary                                   
--------------------------------------------------------------------------------
  Energy:                                                 -435.4446985389 a.u.
  Dip. moment [a.u.]:                  [ -56.233959,  184.245197,    0.807427]
  Total dipole [Debye]:                                             489.635753
  <r^2> [a.u.]:                        [ 171.538617,  909.964159,   94.905032]
  Total <r^2> [a.u.]:                                              1176.407808
--------------------------------------------------------------------------------

--------------------------------------------------------------------------------
                                 MP(2) Summary                                  
--------------------------------------------------------------------------------
  Energy contribution:                                      -0.8076666402 a.u.
  Total energy:                                           -436.2523651791 a.u.
  Dip. moment [a.u.]:                  [ -56.108025,  184.491263,    0.704992]
  Total dipole [Debye]:                                             490.139726
  <r^2> [a.u.]:                        [ 171.037229,  912.093652,   94.731843]
  Total <r^2> [a.u.]:                                              1177.862724
--------------------------------------------------------------------------------
  Starting Davidson ... 
--------------------------------------------------------------------------------
   It NVec Conv  Avg. Norm  Max. Norm  Conv. states           Remark
--------------------------------------------------------------------------------
        20    0  2.081e-01  1.056e+00 10.9905 n n n n n n n n Guess.
    1   40    0  4.346e-02  6.234e-01 10.8331 n n n n n n n n 
    2   60    0  1.139e-02  1.625e-01 10.8318 n n n n n n n n 
    3   80    0  4.350e-03  7.793e-02 10.8317 n n n n n n n n 
    4  100    0  1.322e-03  2.105e-02 10.8317 n n n n n n n n 
    5   40    0  7.334e-04  9.832e-03 10.8317 n n n n n n n n Subspace collapsed.
    6   60    0  5.589e-04  7.603e-03 10.8317 n n n n n n n n 
    7   80    0  4.845e-04  6.111e-03 10.8317 n n n n n n n n 
    8  100    2  2.997e-04  3.741e-03 10.8317 y y n n n n n n 
    9   40    5  1.519e-04  1.898e-03 10.8317 y y n y n y n y Subspace collapsed.
   10   60    6  9.323e-05  1.212e-03 10.8317 y y n y n y y y 
   11   80   11  7.205e-05  1.071e-03 10.8317 y y y y y y y y 
   12  100   14  6.521e-05  9.338e-04 10.8317 y y y y y y y y 
   13   40   14  4.139e-05  6.400e-04 10.8317 y y y y y y y y Subspace collapsed.
   14   60   14  4.505e-05  6.119e-04 10.8317 y y y y y y y y 
   15   80   14  4.379e-05  5.774e-04 10.8317 y y y y y y y y 
   16   99   15  4.283e-05  6.465e-04 10.8317 y y y y y y y y 
   17  100   15  4.172e-05  6.210e-04 10.8317 y y y y y y y y 
   18   20   15  4.172e-05  6.210e-04 10.8317 y y y y y y y y Subspace collapsed.
   19   38   15  2.041e-05  3.170e-04 10.8317 y y y y y y y y 
   20   56   16  1.555e-05  2.527e-04 10.8317 y y y y y y y y 
   21   72   16  1.191e-05  2.073e-04 10.8317 y y y y y y y y 
   22   87   16  9.661e-06  1.637e-04 10.8317 y y y y y y y y 
   23   88   16  9.656e-06  1.634e-04 10.8317 y y y y y y y y 
   24  100   16  1.251e-05  1.985e-04 10.8317 y y y y y y y y 
   25   32   16  5.339e-06  8.352e-05 10.8317 y y y y y y y y Subspace collapsed.
   26   33   16  5.340e-06  8.354e-05 10.8317 y y y y y y y y 
   27   44   16  5.022e-06  8.210e-05 10.8317 y y y y y y y y 
   28   44   16  5.022e-06  8.210e-05 10.8317 y y y y y y y y 
   29   64   16  5.406e-06  9.007e-05 10.8317 y y y y y y y y 
   30   64   16  5.406e-06  9.007e-05 10.8317 y y y y y y y y 
   31   66   16  5.379e-06  8.958e-05 10.8317 y y y y y y y y 
   32   66   16  5.379e-06  8.958e-05 10.8317 y y y y y y y y 
   33   67   16  5.385e-06  8.972e-05 10.8317 y y y y y y y y 
   34   67   16  5.385e-06  8.972e-05 10.8317 y y y y y y y y 
   35   68   16  5.400e-06  9.003e-05 10.8317 y y y y y y y y 
   36   69   16  5.409e-06  9.026e-05 10.8317 y y y y y y y y 
   37   69   16  5.409e-06  9.026e-05 10.8317 y y y y y y y y 
   38   71   16  5.402e-06  9.011e-05 10.8317 y y y y y y y y 
   39   71   16  5.402e-06  9.011e-05 10.8317 y y y y y y y y 
   40   71   16  5.402e-06  9.011e-05 10.8317 y y y y y y y y 
   41   91   16  6.921e-06  1.180e-04 10.8317 y y y y y y y y 
   42   91   16  6.921e-06  1.180e-04 10.8317 y y y y y y y y 
   43   92   16  6.921e-06  1.180e-04 10.8317 y y y y y y y y 
   44   93   16  6.946e-06  1.183e-04 10.8317 y y y y y y y y 
   45   94   16  7.000e-06  1.196e-04 10.8317 y y y y y y y y 
   46   95   16  7.132e-06  1.227e-04 10.8317 y y y y y y y y 
   47   98   15  7.141e-06  1.232e-04 10.8317 y y n y y y y y 
   48  100    6  7.162e-06  1.236e-04 10.8317 n n n y n n y n 
   49   26   15  7.091e-06  1.224e-04 10.8317 y y n y y y y y Subspace collapsed.
   50   46   16  3.822e-06  6.361e-05 10.8317 y y y y y y y y 
   51   66   16  3.347e-06  5.285e-05 10.8317 y y y y y y y y 
   52   86   16  3.403e-06  4.833e-05 10.8317 y y y y y y y y 
   53  100    5  4.185e-06  6.139e-05 10.8317 n n y y n n n n 
   54   40   15  2.213e-06  3.576e-05 10.8317 y y y y y y n y Subspace collapsed.
   55   60   16  2.675e-06  4.279e-05 10.8317 y y y y y y y y 
   56   80   16  3.164e-06  5.544e-05 10.8317 y y y y y y y y 
   57  100   16  4.540e-06  7.771e-05 10.8317 y y y y y y y y 
   58   40   17  2.216e-06  3.854e-05 10.8317 y y y y y y y y Subspace collapsed.
   59   60   17  1.836e-06  2.661e-05 10.8317 y y y y y y y y 
--------------------------------------------------------------------------------
  Davidson Summary: 
 ------------------------------------------------------------
  State  0: excitation energy =  10.8317 a.u.   (converged)
  State  1: excitation energy =  10.8998 a.u.   (converged)
  State  2: excitation energy =  11.1587 a.u.   (converged)
  State  3: excitation energy =  11.1925 a.u.   (converged)
  State  4: excitation energy =  11.2327 a.u.   (converged)
  State  5: excitation energy =  11.2555 a.u.   (converged)
  State  6: excitation energy =  11.2720 a.u.   (converged)
  State  7: excitation energy =  11.3325 a.u.   (converged)
  State  8: excitation energy =  11.4618 a.u.   (converged)
  State  9: excitation energy =  11.5196 a.u.   (converged)
  State 10: excitation energy =  11.5496 a.u.   (converged)
  State 11: excitation energy =  11.5598 a.u.   (converged)
  State 12: excitation energy =  11.5640 a.u.   (converged)
  State 13: excitation energy =  11.5767 a.u.   (converged)
  State 14: excitation energy =  11.7411 a.u.   (converged)
  State 15: excitation energy =  11.7594 a.u.   (converged)
  State 16: excitation energy =  12.1684 a.u.   (converged)
  State 17: excitation energy =  12.1745 a.u.   (not converged)
  State 18: excitation energy =  12.1973 a.u.   (not converged)
  State 19: excitation energy =  12.2021 a.u.   (not converged)
 ------------------------------------------------------------


--------------------------------------------------------------------------------
                             Excited State Summary
--------------------------------------------------------------------------------

  Excited state  1 (A)                                             [converged]
  ----------------------------------------------------------------------------
  Term symbol:  2 (-) A                                     R^2 =  5.85765e-11

  Total energy:                                           -425.4206361337 a.u.
  Excitation energy:                                             294.746337 eV

  Osc. strength:                                                      0.000000
  Trans. dip. moment [a.u.]:           [   0.000000,    0.000000,   -0.000000]
  <i|r^2|0> [a.u.]:                    [  -0.000000,    0.000000,    0.000000]

  V1^2 = 0.9570, V2^2 = 0.0430

  Important amplitudes:
     core i     occ j      vir a      vir b          v   
    ------------------------------------------------------
     5 (A) A              22 (A) A                 0.6372
     5 (A) B              22 (A) B                -0.6372
    ------------------------------------------------------
  ----------------------------------------------------------------------------


  Excited state  2 (A)                                             [converged]
  ----------------------------------------------------------------------------
  Term symbol:  3 (-) A                                     R^2 =  8.91489e-11

  Total energy:                                           -425.3525749411 a.u.
  Excitation energy:                                             296.598377 eV

  Osc. strength:                                                      0.101437
  Trans. dip. moment [a.u.]:           [  -0.035245,   -0.106961,    0.035731]
  <i|r^2|0> [a.u.]:                    [   0.062782,   -1.116082,   -0.025210]

  V1^2 = 0.9514, V2^2 = 0.0486

  Important amplitudes:
     core i     occ j      vir a      vir b          v   
    ------------------------------------------------------
     5 (A) B              22 (A) B                -0.6542
     5 (A) A              22 (A) A                -0.6542
    ------------------------------------------------------
  ----------------------------------------------------------------------------


  Excited state  3 (A)                                             [converged]
  ----------------------------------------------------------------------------
  Term symbol:  4 (-) A                                     R^2 =  1.55392e-11

  Total energy:                                           -425.0936507704 a.u.
  Excitation energy:                                             303.644062 eV

  Osc. strength:                                                      0.000000
  Trans. dip. moment [a.u.]:           [   0.000000,   -0.000000,   -0.000000]
  <i|r^2|0> [a.u.]:                    [  -0.000000,   -0.000000,    0.000000]

  V1^2 = 0.9338, V2^2 = 0.0662

  Important amplitudes:
     core i     occ j      vir a      vir b          v   
    ------------------------------------------------------
     5 (A) A              23 (A) A                 0.5965
     5 (A) B              23 (A) B                -0.5965
    ------------------------------------------------------
  ----------------------------------------------------------------------------


  Excited state  4 (A)                                             [converged]
  ----------------------------------------------------------------------------
  Term symbol:  5 (-) A                                     R^2 =  4.14734e-11

  Total energy:                                           -425.0598221082 a.u.
  Excitation energy:                                             304.564586 eV

  Osc. strength:                                                      0.000000
  Trans. dip. moment [a.u.]:           [  -0.000000,   -0.000000,    0.000000]
  <i|r^2|0> [a.u.]:                    [   0.000000,   -0.000000,    0.000000]

  V1^2 = 0.9533, V2^2 = 0.0467

  Important amplitudes:
     core i     occ j      vir a      vir b          v   
    ------------------------------------------------------
     5 (A) B              24 (A) B                -0.4964
     5 (A) A              24 (A) A                 0.4964
    ------------------------------------------------------
  ----------------------------------------------------------------------------


  Excited state  5 (A)                                             [converged]
  ----------------------------------------------------------------------------
  Term symbol:  6 (-) A                                     R^2 =  1.65056e-10

  Total energy:                                           -425.0196964573 a.u.
  Excitation energy:                                             305.656461 eV

  Osc. strength:                                                      0.022548
  Trans. dip. moment [a.u.]:           [   0.033035,    0.043786,   -0.001555]
  <i|r^2|0> [a.u.]:                    [  -0.078503,    0.427478,   -0.015862]

  V1^2 = 0.9225, V2^2 = 0.0775

  Important amplitudes:
     core i     occ j      vir a      vir b          v   
    ------------------------------------------------------
     5 (A) A              23 (A) A                -0.6370
     5 (A) B              23 (A) B                -0.6370
    ------------------------------------------------------
  ----------------------------------------------------------------------------


  Excited state  6 (A)                                             [converged]
  ----------------------------------------------------------------------------
  Term symbol:  7 (-) A                                     R^2 =  2.01374e-10

  Total energy:                                           -424.9968856715 a.u.
  Excitation energy:                                             306.277174 eV

  Osc. strength:                                                      0.000000
  Trans. dip. moment [a.u.]:           [  -0.000000,   -0.000000,    0.000000]
  <i|r^2|0> [a.u.]:                    [   0.000000,   -0.000000,   -0.000000]

  V1^2 = 0.9508, V2^2 = 0.0492

  Important amplitudes:
     core i     occ j      vir a      vir b          v   
    ------------------------------------------------------
     5 (A) B              28 (A) B                -0.5083
     5 (A) A              28 (A) A                 0.5083
    ------------------------------------------------------
  ----------------------------------------------------------------------------


  Excited state  7 (A)                                             [converged]
  ----------------------------------------------------------------------------
  Term symbol:  8 (-) A                                     R^2 =  1.95298e-09

  Total energy:                                           -424.9803727657 a.u.
  Excitation energy:                                             306.726513 eV

  Osc. strength:                                                      0.119468
  Trans. dip. moment [a.u.]:           [  -0.010318,    0.037689,    0.119880]
  <i|r^2|0> [a.u.]:                    [   0.021078,    0.392571,   -0.071633]

  V1^2 = 0.9443, V2^2 = 0.0557

  Important amplitudes:
     core i     occ j      vir a      vir b          v   
    ------------------------------------------------------
     5 (A) B              24 (A) B                 0.5410
     5 (A) A              24 (A) A                 0.5410
    ------------------------------------------------------
  ----------------------------------------------------------------------------


  Excited state  8 (A)                                             [converged]
  ----------------------------------------------------------------------------
  Term symbol:  9 (-) A                                     R^2 =  2.16348e-10

  Total energy:                                           -424.9198660490 a.u.
  Excitation energy:                                             308.372984 eV

  Osc. strength:                                                      0.112192
  Trans. dip. moment [a.u.]:           [   0.112976,   -0.039944,    0.022157]
  <i|r^2|0> [a.u.]:                    [  -0.217296,   -0.413507,   -0.007163]

  V1^2 = 0.9406, V2^2 = 0.0594

  Important amplitudes:
     core i     occ j      vir a      vir b          v   
    ------------------------------------------------------
     5 (A) A              25 (A) A                 0.5012
     5 (A) B              25 (A) B                 0.5012
    ------------------------------------------------------
  ----------------------------------------------------------------------------


  Excited state  9 (A)                                             [converged]
  ----------------------------------------------------------------------------
  Term symbol:  10 (-) A                                    R^2 =  2.99560e-10

  Total energy:                                           -424.7905300862 a.u.
  Excitation energy:                                             311.892395 eV

  Osc. strength:                                                      0.000000
  Trans. dip. moment [a.u.]:           [  -0.000000,   -0.000000,    0.000000]
  <i|r^2|0> [a.u.]:                    [   0.000000,   -0.000000,   -0.000000]

  V1^2 = 0.9172, V2^2 = 0.0828

  Important amplitudes:
     core i     occ j      vir a      vir b          v   
    ------------------------------------------------------
     5 (A) A              26 (A) A                 0.6018
     5 (A) B              26 (A) B                -0.6018
    ------------------------------------------------------
  ----------------------------------------------------------------------------


  Excited state 10 (A)                                             [converged]
  ----------------------------------------------------------------------------
  Term symbol:  11 (-) A                                    R^2 =  1.33835e-10

  Total energy:                                           -424.7327939521 a.u.
  Excitation energy:                                             313.463475 eV

  Osc. strength:                                                      0.019944
  Trans. dip. moment [a.u.]:           [   0.024008,    0.042270,   -0.015289]
  <i|r^2|0> [a.u.]:                    [  -0.024454,    0.461507,    0.031851]

  V1^2 = 0.9177, V2^2 = 0.0823

  Important amplitudes:
     core i     occ j      vir a      vir b          v   
    ------------------------------------------------------
     5 (A) B              26 (A) B                -0.6415
     5 (A) A              26 (A) A                -0.6415
    ------------------------------------------------------
  ----------------------------------------------------------------------------


  Excited state 11 (A)                                             [converged]
  ----------------------------------------------------------------------------
  Term symbol:  12 (-) A                                    R^2 =  4.37296e-10

  Total energy:                                           -424.7028013015 a.u.
  Excitation energy:                                             314.279617 eV

  Osc. strength:                                                      0.000000
  Trans. dip. moment [a.u.]:           [  -0.000000,   -0.000000,    0.000000]
  <i|r^2|0> [a.u.]:                    [   0.000000,   -0.000000,   -0.000000]

  V1^2 = 0.8910, V2^2 = 0.1090

  Important amplitudes:
     core i     occ j      vir a      vir b          v   
    ------------------------------------------------------
     5 (A) A              27 (A) A                 0.4810
     5 (A) B              27 (A) B                -0.4810
    ------------------------------------------------------
  ----------------------------------------------------------------------------


  Excited state 12 (A)                                             [converged]
  ----------------------------------------------------------------------------
  Term symbol:  13 (-) A                                    R^2 =  5.13231e-10

  Total energy:                                           -424.6925457261 a.u.
  Excitation energy:                                             314.558685 eV

  Osc. strength:                                                      0.000000
  Trans. dip. moment [a.u.]:           [  -0.000000,   -0.000000,    0.000000]
  <i|r^2|0> [a.u.]:                    [   0.000000,   -0.000000,   -0.000000]

  V1^2 = 0.8904, V2^2 = 0.1096

  Important amplitudes:
     core i     occ j      vir a      vir b          v   
    ------------------------------------------------------
     5 (A) A              25 (A) A                -0.4897
     5 (A) B              25 (A) B                 0.4897
    ------------------------------------------------------
  ----------------------------------------------------------------------------


  Excited state 13 (A)                                             [converged]
  ----------------------------------------------------------------------------
  Term symbol:  14 (-) A                                    R^2 =  8.14536e-10

  Total energy:                                           -424.6884138294 a.u.
  Excitation energy:                                             314.671120 eV

  Osc. strength:                                                      0.028809
  Trans. dip. moment [a.u.]:           [   0.008028,   -0.025796,   -0.054837]
  <i|r^2|0> [a.u.]:                    [  -0.015037,   -0.266489,    0.033699]

  V1^2 = 0.8945, V2^2 = 0.1055

  Important amplitudes:
     core i     occ j      vir a      vir b          v   
    ------------------------------------------------------
     5 (A) B              27 (A) B                -0.5336
     5 (A) A              27 (A) A                -0.5336
    ------------------------------------------------------
  ----------------------------------------------------------------------------


  Excited state 14 (A)                                             [converged]
  ----------------------------------------------------------------------------
  Term symbol:  15 (-) A                                    R^2 =  9.48824e-10

  Total energy:                                           -424.6756460347 a.u.
  Excitation energy:                                             315.018549 eV

  Osc. strength:                                                      0.034956
  Trans. dip. moment [a.u.]:           [  -0.061893,    0.021231,   -0.015741]
  <i|r^2|0> [a.u.]:                    [   0.116081,    0.217324,    0.005140]

  V1^2 = 0.8959, V2^2 = 0.1041

  Important amplitudes:
     core i     occ j      vir a      vir b          v   
    ------------------------------------------------------
     5 (A) A              28 (A) A                -0.4922
     5 (A) B              28 (A) B                -0.4922
    ------------------------------------------------------
  ----------------------------------------------------------------------------


  Excited state 15 (A)                                             [converged]
  ----------------------------------------------------------------------------
  Term symbol:  16 (-) A                                    R^2 =  2.62452e-10

  Total energy:                                           -424.5112774542 a.u.
  Excitation energy:                                             319.491245 eV

  Osc. strength:                                                      0.000000
  Trans. dip. moment [a.u.]:           [   0.000000,   -0.000000,    0.000000]
  <i|r^2|0> [a.u.]:                    [   0.000000,   -0.000000,   -0.000000]

  V1^2 = 0.8844, V2^2 = 0.1156

  Important amplitudes:
     core i     occ j      vir a      vir b          v   
    ------------------------------------------------------
     5 (A) A              29 (A) A                -0.6358
     5 (A) B              29 (A) B                 0.6358
    ------------------------------------------------------
  ----------------------------------------------------------------------------


  Excited state 16 (A)                                             [converged]
  ----------------------------------------------------------------------------
  Term symbol:  17 (-) A                                    R^2 =  1.29481e-10

  Total energy:                                           -424.4929190623 a.u.
  Excitation energy:                                             319.990803 eV

  Osc. strength:                                                      0.013283
  Trans. dip. moment [a.u.]:           [   0.014782,    0.035907,   -0.013659]
  <i|r^2|0> [a.u.]:                    [  -0.037841,    0.360375,   -0.002264]

  V1^2 = 0.8857, V2^2 = 0.1143

  Important amplitudes:
     core i     occ j      vir a      vir b          v   
    ------------------------------------------------------
     5 (A) B              29 (A) B                 0.6501
     5 (A) A              29 (A) A                 0.6501
    ------------------------------------------------------
  ----------------------------------------------------------------------------


  Excited state 17 (A)                                             [converged]
  ----------------------------------------------------------------------------
  Term symbol:  18 (-) A                                    R^2 =  5.80005e-07

  Total energy:                                           -424.0839198759 a.u.
  Excitation energy:                                             331.120237 eV

  Osc. strength:                                                      0.000000
  Trans. dip. moment [a.u.]:           [   0.000000,    0.000000,   -0.000000]
  <i|r^2|0> [a.u.]:                    [  -0.000000,    0.000000,    0.000000]

  V1^2 = 0.8674, V2^2 = 0.1326

  Important amplitudes:
     core i     occ j      vir a      vir b          v   
    ------------------------------------------------------
     5 (A) A              30 (A) A                -0.6242
     5 (A) B              30 (A) B                 0.6242
    ------------------------------------------------------
  ----------------------------------------------------------------------------


  Excited state 18 (A)                                         [not converged]
  ----------------------------------------------------------------------------
  Term symbol:  19 (-) A                                    R^2 =  1.89326e-06

  Total energy:                                           -424.0778539130 a.u.
  Excitation energy:                                             331.285300 eV


  V1^2 = 0.8655, V2^2 = 0.1345

  Important amplitudes:
     core i     occ j      vir a      vir b          v   
    ------------------------------------------------------
     5 (A) A              30 (A) A                 0.6320
     5 (A) B              30 (A) B                 0.6320
    ------------------------------------------------------
  ----------------------------------------------------------------------------


  Excited state 19 (A)                                         [not converged]
  ----------------------------------------------------------------------------
  Term symbol:  20 (-) A                                    R^2 =  2.66100e-05

  Total energy:                                           -424.0551149415 a.u.
  Excitation energy:                                             331.904059 eV


  V1^2 = 0.8435, V2^2 = 0.1565

  Important amplitudes:
     core i     occ j      vir a      vir b          v   
    ------------------------------------------------------
     5 (A) B              31 (A) B                -0.6136
     5 (A) A              31 (A) A                 0.6136
    ------------------------------------------------------
  ----------------------------------------------------------------------------


  Excited state 20 (A)                                         [not converged]
  ----------------------------------------------------------------------------
  Term symbol:  21 (-) A                                    R^2 =  2.52138e-05

  Total energy:                                           -424.0502345731 a.u.
  Excitation energy:                                             332.036860 eV


  V1^2 = 0.8351, V2^2 = 0.1649

  Important amplitudes:
     core i     occ j      vir a      vir b          v   
    ------------------------------------------------------
     5 (A) B              31 (A) B                 0.6185
     5 (A) A              31 (A) A                 0.6185
    ------------------------------------------------------
  ----------------------------------------------------------------------------


--------------------------------------------------------------------------------
  Time of ADC calculation:  CPU 4009.98 s  wall 2426.98 s
================================================================================
 
 --------------------------------------------------------------
 
                    Orbital Energies (a.u.)
 --------------------------------------------------------------
 
 Alpha MOs
 -- Occupied --
-26.502 -26.469 -26.458 -26.066 -11.688  -1.913  -1.815  -1.778
 -1.332  -1.073  -0.988  -0.980  -0.926  -0.816  -0.813  -0.805
 -0.781  -0.759  -0.429  -0.427  -0.420
 -- Virtual --
  0.057   0.348   0.434   0.461   0.600   0.642   0.698   0.795
  1.208   1.242   1.251   1.321   1.330   1.431   1.493   1.496
  1.527   1.545   1.551   1.575   1.678   1.740   1.755   1.920
  1.940   1.982   1.997   2.037   2.082   2.116   2.164   2.173
  2.200   2.260   2.293   2.349   2.351   2.416   2.461   2.573
  2.633   2.932   2.982   3.067   3.221   3.275   3.468   3.499
  3.550   4.280   4.620   5.066   5.231   6.909
 
 Beta MOs
 -- Occupied --
-26.502 -26.469 -26.458 -26.066 -11.688  -1.913  -1.815  -1.778
 -1.332  -1.073  -0.988  -0.980  -0.926  -0.816  -0.813  -0.805
 -0.781  -0.759  -0.429  -0.427  -0.420
 -- Virtual --
  0.057   0.348   0.434   0.461   0.600   0.642   0.698   0.795
  1.208   1.242   1.251   1.321   1.330   1.431   1.493   1.496
  1.527   1.545   1.551   1.575   1.678   1.740   1.755   1.920
  1.940   1.982   1.997   2.037   2.082   2.116   2.164   2.173
  2.200   2.260   2.293   2.349   2.351   2.416   2.461   2.573
  2.633   2.932   2.982   3.067   3.221   3.275   3.468   3.499
  3.550   4.280   4.620   5.066   5.231   6.909
 --------------------------------------------------------------
 
          Ground-State Mulliken Net Atomic Charges

     Atom                 Charge (a.u.)    Spin (a.u.)
  --------------------------------------------------------
      1 C                     1.200503       0.000000
      2 F                    -0.108096       0.000000
      3 F                    -0.168661       0.000000
      4 F                    -0.747086       0.000000
      5 F                    -0.176661       0.000000
  --------------------------------------------------------
  Sum of atomic charges =     0.000000
  Sum of spin   charges =     0.000000

 -----------------------------------------------------------------
                    Cartesian Multipole Moments
 -----------------------------------------------------------------
    Charge (ESU x 10^10)
                 0.0000
    Dipole Moment (Debye)
         X       2.8945      Y       5.7365      Z      -2.3492
       Tot       6.8413
    Quadrupole Moments (Debye-Ang)
        XX     -27.7648     XY       1.0629     YY      -0.7217
        XZ       2.3579     YZ      -3.7884     ZZ     -24.1484
    Octopole Moments (Debye-Ang^2)
       XXX      55.3107    XXY     -58.2548    XYY      12.2975
       YYY     -90.3780    XXZ      -2.8225    XYZ       2.8010
       YYZ      -8.5770    XZZ      17.4328    YZZ     -55.1753
       ZZZ      -0.6996
    Hexadecapole Moments (Debye-Ang^3)
      XXXX    -156.1868   XXXY     114.0632   XXYY    -169.1094
      XYYY      90.7456   YYYY    -626.8396   XXXZ       6.8886
      XXYZ      -1.0743   XYYZ       4.8932   YYYZ     -19.9550
      XXZZ     -38.6312   XYZZ      37.2536   YYZZ    -155.7329
      XZZZ       3.8459   YZZZ       5.3558   ZZZZ     -78.7420
 -----------------------------------------------------------------
Archival summary:
1\1\tp-linux1\SP\HF\6-31G*\41\thomas\SunMar1907:59:372017SunMar1907:59:372017\0\\#,HF,6-31G*,\\0,1\C\F,1,1.18642\F,1,1.24313,2,121.924\F,1,1.24455,2,120.868,3,-168.677,0\F,1,1.97328,2,91.8439,3,-88.1166,0\\HF=-435.444699\\@

 Total job time:  2430.66s(wall), 4019.23s(cpu) 
 Sun Mar 19 07:59:37 2017

        *************************************************************
        *                                                           *
        *  Thank you very much for using Q-Chem.  Have a nice day.  *
        *                                                           *
        *************************************************************


0 sent ACK to 0 
now end server 0 ... 
cleanup process ... done
