
Running Job 1 of 2 ddtraj2t24.inp
qchem ddtraj2t24.inp_7206.0 /scratch/qchem/qchem7206/ 1
/mnt/software/qchem/bin/mpi/mpirun_qchem -machinefile /mnt/software/qchem/bin/mpi/machines -np 1 /mnt/software/qchem/exe/qcprog.exe ddtraj2t24.inp_7206.0 /scratch/qchem/qchem7206/

Process 0 of 1 is on tp-linux1 - thread support 0
initial socket setup ...start
initial socket setup ...done 
now start server 0 ... 

cmd = ssh tp-linux1 /mnt/software/qchem/bin/get_hostid 2077657320 > /scratch/qchem/qchem7206/lic.dat
                  Welcome to Q-Chem
     A Quantum Leap Into The Future Of Chemistry


 Q-Chem 4.3, Q-Chem, Inc., Pleasanton, CA (2015)

 Y. Shao,  Z. Gan,  E. Epifanovsky,  A. T. B. Gilbert,  M. Wormit,  
 J. Kussmann,  A. W. Lange,  A. Behn,  J. Deng,  X. Feng,  D. Ghosh,  
 M. Goldey,  P. R. Horn,  L. D. Jacobson,  I. Kaliman,  R. Z. Khaliullin,  
 T. Kus,  A. Landau,  J. Liu,  E. I. Proynov,  Y. M. Rhee,  R. M. Richard,  
 M. A. Rohrdanz,  R. P. Steele,  E. J. Sundstrom,  H. L. Woodcock III,  
 P. M. Zimmerman,  D. Zuev,  B. Albrecht,  E. Alguire,  B. Austin,  
 S. A. Baeppler,  G. J. O. Beran,  Y. A. Bernard,  E. Berquist,  
 K. Brandhorst,  K. B. Bravaya,  S. T. Brown,  D. Casanova,  C.-M. Chang,  
 Y. Chen,  S. H. Chien,  K. D. Closser,  D. L. Crittenden,  M. Diedenhofen,  
 R. A. DiStasio Jr.,  H. Do,  A. D. Dutoi,  R. G. Edgar,  P.-T. Fang,  
 S. Fatehi,  Q. Feng,  L. Fusti-Molnar,  A. Ghysels,  
 A. Golubeva-Zadorozhnaya,  J. Gomes,  A. Gunina,  M. W. D. Hanson-Heine,  
 P. H. P. Harbach,  A. W. Hauser,  E. G. Hohenstein,  Z. C. Holden,  K. Hui,  
 T.-C. Jagau,  H. Ji,  B. Kaduk,  K. Khistyaev,  Jaehoon Kim,  Jihan Kim,  
 R. A. King,  P. Klunzinger,  D. Kosenkov,  T. Kowalczyk,  C. M. Krauter,  
 K. U. Lao,  A. Laurent,  K. V. Lawler,  S. Lehtola,  S. V. Levchenko,  
 C. Y. Lin,  Y.-S. Lin,  F. Liu,  E. Livshits,  R. C. Lochan,  A. Luenser,  
 P. Manohar,  S. F. Manzer,  S.-P. Mao,  N. Mardirossian,  A. V. Marenich,  
 L. A. Martinez-Martinez,  S. A. Maurer,  N. J. Mayhall,  K. Nanda,  
 C. M. Oana,  R. Olivares-Amaya,  D. P. O'Neill,  J. A. Parkhill,  
 T. M. Perrine,  R. Peverati,  P. A. Pieniazek,  F. Plasser,  A. Prociuk,  
 D. R. Rehn,  E. Rosta,  N. J. Russ,  N. Sergueev,  S. M. Sharada,  
 S. Sharma,  D. W. Small,  A. Sodt,  T. Stauch,  T. Stein,  D. Stuck,  
 Y.-C. Su,  A. J. W. Thom,  T. Tsuchimochi,  L. Vogt,  O. Vydrov,  T. Wang,  
 M. A. Watson,  J. Wenzel,  A. White,  C. F. Williams,  V. Vanovschi,  
 S. Yeganeh,  S. R. Yost,  Z.-Q. You,  I. Y. Zhang,  X. Zhang,  Y. Zhao,  
 B. R. Brooks,  G. K. L. Chan,  D. M. Chipman,  C. J. Cramer,  
 W. A. Goddard III,  M. S. Gordon,  W. J. Hehre,  A. Klamt,  
 H. F. Schaefer III,  M. W. Schmidt,  C. D. Sherrill,  D. G. Truhlar,  
 A. Warshel,  X. Xu,  A. Aspuru-Guzik,  R. Baer,  A. T. Bell,  N. A. Besley,  
 J.-D. Chai,  A. Dreuw,  B. D. Dunietz,  T. R. Furlani,  S. R. Gwaltney,  
 C.-P. Hsu,  Y. Jung,  J. Kong,  D. S. Lambrecht,  W. Liang,  C. Ochsenfeld,  
 V. A. Rassolov,  L. V. Slipchenko,  J. E. Subotnik,  T. Van Voorhis,  
 J. M. Herbert,  A. I. Krylov,  P. M. W. Gill,  M. Head-Gordon

 Contributors to earlier versions of Q-Chem not listed above: 
 R. D. Adamson,  J. Baker,  E. F. C. Byrd,  A. K. Chakraborty,  C.-L. Cheng,  
 H. Dachsel,  R. J. Doerksen,  G. Hawkins,  A. Heyden,  S. Hirata,  
 G. Kedziora,  F. J. Keil,  C. Kelley,  P. P. Korambath,  W. Kurlancheek,  
 A. M. Lee,  M. S. Lee,  D. Liotard,  I. Lotan,  P. E. Maslen,  N. Nair,  
 D. Neuhauser,  R. Olson,  B. Peters,  J. Ritchie,  N. E. Schultz,  
 N. Shenvi,  A. C. Simmonett,  K. S. Thanthiriwatte,  Q. Wu,  W. Zhang

 Please cite Q-Chem as follows:
 Y. Shao et al., Mol. Phys. 113, 184-215 (2015)
 DOI: 10.1080/00268976.2014.952696

 Q-Chem 4.3.0 for Intel X86 Linux

 Parts of Q-Chem use Armadillo 5.200.1 (Boston Tea Smuggler).
 http://arma.sourceforge.net/

 Q-Chem begins on Fri Mar 17 05:07:04 2017  

Host: 
0

     Scratch files written to /scratch/qchem/qchem7206//
 Nov1815 1189b_ 19540  19532 5443   
 Parallel job on  1  processors
Processing $rem in /mnt/software/qchem/config/preferences.
 MEM_TOTAL  2000 

Checking the input file for inconsistencies... 	...done.

--------------------------------------------------------------
User input:
--------------------------------------------------------------
$comment
XAS calculation for the 2b valence excited for water using cvs-adc(2)-x + 6-311+G* basis set
job 1 - determination of HF orbitals
$end

$molecule
0 1
6  -0.444365  3.008959  -0.25112
9  0.512644  2.383026  -0.006244
9  -1.137812  3.333979  0.755832
9  -1.256955  0.663102  0.609599
9  -1.122815  2.62718  -1.183395
$end

$rem
jobtype      sp
sym_ignore true
exchange     hf
basis        6-31G*
unrestricted true
$end

--------------------------------------------------------------
 ----------------------------------------------------------------
             Standard Nuclear Orientation (Angstroms)
    I     Atom           X                Y                Z
 ----------------------------------------------------------------
    1      C      -0.4443650000     3.0089590000    -0.2511200000
    2      F       0.5126440000     2.3830260000    -0.0062440000
    3      F      -1.1378120000     3.3339790000     0.7558320000
    4      F      -1.2569550000     0.6631020000     0.6095990000
    5      F      -1.1228150000     2.6271800000    -1.1833950000
 ----------------------------------------------------------------
 Nuclear Repulsion Energy =   193.1599416799 hartrees
 There are       21 alpha and       21 beta electrons
 Requested basis set is 6-31G(d)
 There are 20 shells and 75 basis functions

 Total QAlloc Memory Limit   2000 MB
 Mega-Array Size        61 MB
 MEM_STATIC part        62 MB

                       Distance Matrix (Angstroms)
             C (  1)   F (  2)   F (  3)   F (  4)
   F (  2)  1.169454
   F (  3)  1.265093  2.051603
   F (  4)  2.627582  2.543400  2.677529
   F (  5)  1.214572  2.029784  2.064071  2.662785
 
 tim1(1): 
  0.000000000000000E+000
 tim1(2): 
  0.000000000000000E+000
 A cutoff of  1.0D-08 yielded    196 shell pairs
 There are      2950 function pairs
 
 -------------------------------------------------------
 OpenMP Integral Computing Module                       
 Release: version 1.0, May 2013, Q-Chem Inc. Pittsburgh 
 -------------------------------------------------------
 Integral Job Info:
 Integral job number is                      11
 Integral operator is                         1
 short-range coefficients                     0
 long-range coefficients              100000000
 Omega coefficients                           0
 if combine SR and LR in K                    0
 Integral screening is                        0
 Integral computing path is                   2
 max size of driver memory is            800000
 size of driver memory is                593474
 size of scratch memory is              2260544
 max col of scratch BK array               1296
 max len of scratch array in speh3          155
 max len of scratch index in speh4           18
 max int batch size is                      520
 min int batch size is                       52
 fixed nKL is                                52
 max L of basis functions is                  2
 order of int derivative is                   0
 number of shells is                         20
 number of basis is                          75
 number of cartesian basis is                75
 number of contracted shell pairs           196
 number of primitive shell pairs            949
 maxK2 (contraction) of shell pair           36
 max number of K2 of shell pair               1
 max number of CS2 of shell pair             26
 max number of PS2 of shell pair            180
 mem total for path MDJ                   21832
 -------------------------------------------------------
 Smallest overlap matrix eigenvalue = 1.80E-03

 Scale SEOQF with 1.000000e+00/1.000000e-01/1.000000e+00

 Standard Electronic Orientation quadrupole field applied
 Nucleus-field energy     =     0.0000000110 hartrees
 Guess from superposition of atomic densities
 Warning:  Energy on first SCF cycle will be non-variational
 An unrestricted Hartree-Fock SCF calculation will be
 performed using Pulay DIIS extrapolation
 SCF converges when DIIS error is below 1.0E-05
 using 8 threads for integral computing 
 ---------------------------------------
  Cycle       Energy         DIIS Error
 ---------------------------------------
    1    -436.4619705701      9.38E-02
    2    -435.0646386749      2.18E-02
    3    -433.9082008007      4.04E-02
    4    -435.2571329018      1.18E-02
    5    -435.2972369859      7.24E-03
    6    -435.3234903732      2.67E-03
    7    -435.3278685145      8.93E-04
    8    -435.3287913215      1.68E-04
    9    -435.3290129924      1.32E-04
   10    -435.3291258704      1.06E-04
   11    -435.3291808121      4.64E-05
   12    -435.3291873593      5.72E-06 Convergence criterion met
 ---------------------------------------
 <S^2> = 0.0000
 SCF time:  CPU 14.05 s  wall 2.86 s
 SCF   energy in the final basis set = -435.3291873593
 Total energy in the final basis set = -435.3291873593
 
 --------------------------------------------------------------
 
                    Orbital Energies (a.u.)
 --------------------------------------------------------------
 
 Alpha MOs
 -- Occupied --
-26.554 -26.534 -26.512 -25.957 -11.735  -1.979  -1.869  -1.819
 -1.216  -1.123  -1.038  -1.031  -0.981  -0.867  -0.857  -0.834
 -0.812  -0.803  -0.325  -0.325  -0.316
 -- Virtual --
 -0.081   0.339   0.361   0.385   0.545   0.585   0.642   0.726
  1.187   1.202   1.222   1.279   1.283   1.381   1.471   1.486
  1.495   1.508   1.525   1.527   1.632   1.773   1.786   1.854
  1.865   1.922   1.963   1.967   1.996   2.037   2.047   2.105
  2.261   2.264   2.315   2.351   2.417   2.417   2.429   2.440
  2.720   2.758   2.850   2.952   3.106   3.161   3.391   3.404
  3.514   4.184   4.473   4.681   4.840   6.429
 
 Beta MOs
 -- Occupied --
-26.554 -26.534 -26.512 -25.957 -11.735  -1.979  -1.869  -1.819
 -1.216  -1.123  -1.038  -1.031  -0.981  -0.867  -0.857  -0.834
 -0.812  -0.803  -0.325  -0.325  -0.316
 -- Virtual --
 -0.081   0.339   0.361   0.385   0.545   0.585   0.642   0.726
  1.187   1.202   1.222   1.279   1.283   1.381   1.471   1.486
  1.495   1.508   1.525   1.527   1.632   1.773   1.786   1.854
  1.865   1.922   1.963   1.967   1.996   2.037   2.047   2.105
  2.261   2.264   2.315   2.351   2.417   2.417   2.429   2.440
  2.720   2.758   2.850   2.952   3.106   3.161   3.391   3.404
  3.514   4.184   4.473   4.681   4.840   6.429
 --------------------------------------------------------------
 
          Ground-State Mulliken Net Atomic Charges

     Atom                 Charge (a.u.)    Spin (a.u.)
  --------------------------------------------------------
      1 C                     1.112696       0.000000
      2 F                    -0.008967       0.000000
      3 F                    -0.143807       0.000000
      4 F                    -0.876403       0.000000
      5 F                    -0.083519       0.000000
  --------------------------------------------------------
  Sum of atomic charges =     0.000000
  Sum of spin   charges =     0.000000

 -----------------------------------------------------------------
                    Cartesian Multipole Moments
 -----------------------------------------------------------------
    Charge (ESU x 10^10)
                 0.0000
    Dipole Moment (Debye)
         X       3.7565      Y       9.6798      Z      -3.7482
       Tot      11.0390
    Quadrupole Moments (Debye-Ang)
        XX     -28.4910     XY      -0.6141     YY      13.6077
        XZ       3.6357     YZ      -5.7547     ZZ     -23.9070
    Octopole Moments (Debye-Ang^2)
       XXX      57.3637    XXY     -55.3517    XYY       6.9893
       YYY     -40.1890    XXZ      -4.5727    XYZ       3.4629
       YYZ     -15.0039    XZZ      17.8698    YZZ     -52.5762
       ZZZ      -2.4149
    Hexadecapole Moments (Debye-Ang^3)
      XXXX    -154.0165   XXXY     108.4511   XXYY    -169.2044
      XYYY      71.8094   YYYY    -501.0328   XXXZ      10.5116
      XXYZ       0.5620   XYYZ       6.7478   YYYZ     -36.1526
      XXZZ     -38.2326   XYZZ      34.6652   YYZZ    -156.3744
      XZZZ       6.4855   YZZZ      10.0005   ZZZZ     -78.5835
 -----------------------------------------------------------------
Archival summary:
1\1\tp-linux1\SP\HF\6-31G*\41\thomas\FriMar1705:07:072017FriMar1705:07:072017\0\\#,HF,6-31G*,\\0,1\F\C,1,1.16945\F,2,1.21457,1,116.718\F,2,1.26509,1,114.797,3,-135.071,0\F,1,2.5434,2,80.9832,3,66.9867,0\\HF=-435.329187\\@

 Total job time:  3.19s(wall), 15.78s(cpu) 
 Fri Mar 17 05:07:07 2017

        *************************************************************
        *                                                           *
        *  Thank you very much for using Q-Chem.  Have a nice day.  *
        *                                                           *
        *************************************************************


0 sent ACK to 0 
now end server 0 ... 
cleanup process ... done

Running Job 2 of 2 ddtraj2t24.inp
qchem ddtraj2t24.inp_7206.1 /scratch/qchem/qchem7206/ 1
/mnt/software/qchem/bin/mpi/mpirun_qchem -machinefile /mnt/software/qchem/bin/mpi/machines -np 1 /mnt/software/qchem/exe/qcprog.exe ddtraj2t24.inp_7206.1 /scratch/qchem/qchem7206/

Process 0 of 1 is on tp-linux1 - thread support 0
initial socket setup ...start
initial socket setup ...done 
now start server 0 ... 

cmd = ssh tp-linux1 /mnt/software/qchem/bin/get_hostid 245350082 > /scratch/qchem/qchem7206/lic.dat
                  Welcome to Q-Chem
     A Quantum Leap Into The Future Of Chemistry


 Q-Chem 4.3, Q-Chem, Inc., Pleasanton, CA (2015)

 Y. Shao,  Z. Gan,  E. Epifanovsky,  A. T. B. Gilbert,  M. Wormit,  
 J. Kussmann,  A. W. Lange,  A. Behn,  J. Deng,  X. Feng,  D. Ghosh,  
 M. Goldey,  P. R. Horn,  L. D. Jacobson,  I. Kaliman,  R. Z. Khaliullin,  
 T. Kus,  A. Landau,  J. Liu,  E. I. Proynov,  Y. M. Rhee,  R. M. Richard,  
 M. A. Rohrdanz,  R. P. Steele,  E. J. Sundstrom,  H. L. Woodcock III,  
 P. M. Zimmerman,  D. Zuev,  B. Albrecht,  E. Alguire,  B. Austin,  
 S. A. Baeppler,  G. J. O. Beran,  Y. A. Bernard,  E. Berquist,  
 K. Brandhorst,  K. B. Bravaya,  S. T. Brown,  D. Casanova,  C.-M. Chang,  
 Y. Chen,  S. H. Chien,  K. D. Closser,  D. L. Crittenden,  M. Diedenhofen,  
 R. A. DiStasio Jr.,  H. Do,  A. D. Dutoi,  R. G. Edgar,  P.-T. Fang,  
 S. Fatehi,  Q. Feng,  L. Fusti-Molnar,  A. Ghysels,  
 A. Golubeva-Zadorozhnaya,  J. Gomes,  A. Gunina,  M. W. D. Hanson-Heine,  
 P. H. P. Harbach,  A. W. Hauser,  E. G. Hohenstein,  Z. C. Holden,  K. Hui,  
 T.-C. Jagau,  H. Ji,  B. Kaduk,  K. Khistyaev,  Jaehoon Kim,  Jihan Kim,  
 R. A. King,  P. Klunzinger,  D. Kosenkov,  T. Kowalczyk,  C. M. Krauter,  
 K. U. Lao,  A. Laurent,  K. V. Lawler,  S. Lehtola,  S. V. Levchenko,  
 C. Y. Lin,  Y.-S. Lin,  F. Liu,  E. Livshits,  R. C. Lochan,  A. Luenser,  
 P. Manohar,  S. F. Manzer,  S.-P. Mao,  N. Mardirossian,  A. V. Marenich,  
 L. A. Martinez-Martinez,  S. A. Maurer,  N. J. Mayhall,  K. Nanda,  
 C. M. Oana,  R. Olivares-Amaya,  D. P. O'Neill,  J. A. Parkhill,  
 T. M. Perrine,  R. Peverati,  P. A. Pieniazek,  F. Plasser,  A. Prociuk,  
 D. R. Rehn,  E. Rosta,  N. J. Russ,  N. Sergueev,  S. M. Sharada,  
 S. Sharma,  D. W. Small,  A. Sodt,  T. Stauch,  T. Stein,  D. Stuck,  
 Y.-C. Su,  A. J. W. Thom,  T. Tsuchimochi,  L. Vogt,  O. Vydrov,  T. Wang,  
 M. A. Watson,  J. Wenzel,  A. White,  C. F. Williams,  V. Vanovschi,  
 S. Yeganeh,  S. R. Yost,  Z.-Q. You,  I. Y. Zhang,  X. Zhang,  Y. Zhao,  
 B. R. Brooks,  G. K. L. Chan,  D. M. Chipman,  C. J. Cramer,  
 W. A. Goddard III,  M. S. Gordon,  W. J. Hehre,  A. Klamt,  
 H. F. Schaefer III,  M. W. Schmidt,  C. D. Sherrill,  D. G. Truhlar,  
 A. Warshel,  X. Xu,  A. Aspuru-Guzik,  R. Baer,  A. T. Bell,  N. A. Besley,  
 J.-D. Chai,  A. Dreuw,  B. D. Dunietz,  T. R. Furlani,  S. R. Gwaltney,  
 C.-P. Hsu,  Y. Jung,  J. Kong,  D. S. Lambrecht,  W. Liang,  C. Ochsenfeld,  
 V. A. Rassolov,  L. V. Slipchenko,  J. E. Subotnik,  T. Van Voorhis,  
 J. M. Herbert,  A. I. Krylov,  P. M. W. Gill,  M. Head-Gordon

 Contributors to earlier versions of Q-Chem not listed above: 
 R. D. Adamson,  J. Baker,  E. F. C. Byrd,  A. K. Chakraborty,  C.-L. Cheng,  
 H. Dachsel,  R. J. Doerksen,  G. Hawkins,  A. Heyden,  S. Hirata,  
 G. Kedziora,  F. J. Keil,  C. Kelley,  P. P. Korambath,  W. Kurlancheek,  
 A. M. Lee,  M. S. Lee,  D. Liotard,  I. Lotan,  P. E. Maslen,  N. Nair,  
 D. Neuhauser,  R. Olson,  B. Peters,  J. Ritchie,  N. E. Schultz,  
 N. Shenvi,  A. C. Simmonett,  K. S. Thanthiriwatte,  Q. Wu,  W. Zhang

 Please cite Q-Chem as follows:
 Y. Shao et al., Mol. Phys. 113, 184-215 (2015)
 DOI: 10.1080/00268976.2014.952696

 Q-Chem 4.3.0 for Intel X86 Linux

 Parts of Q-Chem use Armadillo 5.200.1 (Boston Tea Smuggler).
 http://arma.sourceforge.net/

 Q-Chem begins on Fri Mar 17 05:07:09 2017  

Host: 
0

     Scratch files written to /scratch/qchem/qchem7206//
 Nov1815 1189b_ 19540  19532 5443   
 Parallel job on  1  processors
Processing $rem in /mnt/software/qchem/config/preferences.
 MEM_TOTAL  2000 

Checking the input file for inconsistencies... 	...done.

--------------------------------------------------------------
User input:
--------------------------------------------------------------

$comment
job3 - cvs-adc(2) calculation
$end

$molecule
read
$end

$rem
mem_total 3000
mem_static 1500
sym_ignore true
scf_guess read
method cvs-adc(2)
basis 6-31G*
ee_singlets 20
cc_rest_occ 5                  !only excitations from the lowest N orbitals
unrestricted  true
max_scf_cycles 200
$end
--------------------------------------------------------------
 ----------------------------------------------------------------
             Standard Nuclear Orientation (Angstroms)
    I     Atom           X                Y                Z
 ----------------------------------------------------------------
    1      C      -0.4443650000     3.0089590000    -0.2511200000
    2      F       0.5126440000     2.3830260000    -0.0062440000
    3      F      -1.1378120000     3.3339790000     0.7558320000
    4      F      -1.2569550000     0.6631020000     0.6095990000
    5      F      -1.1228150000     2.6271800000    -1.1833950000
 ----------------------------------------------------------------
 Nuclear Repulsion Energy =   193.1599416799 hartrees
 There are       21 alpha and       21 beta electrons
 Requested basis set is 6-31G(d)
 There are 20 shells and 75 basis functions

 Total QAlloc Memory Limit   3000 MB
 Mega-Array Size      1467 MB
 MEM_STATIC part      1500 MB

                       Distance Matrix (Angstroms)
             C (  1)   F (  2)   F (  3)   F (  4)
   F (  2)  1.169454
   F (  3)  1.265093  2.051603
   F (  4)  2.627582  2.543400  2.677529
   F (  5)  1.214572  2.029784  2.064071  2.662785
 
 tim1(1): 
  0.000000000000000E+000
 tim1(2): 
  0.000000000000000E+000
 A cutoff of  1.0D-11 yielded    197 shell pairs
 There are      2954 function pairs
 
 -------------------------------------------------------
 OpenMP Integral Computing Module                       
 Release: version 1.0, May 2013, Q-Chem Inc. Pittsburgh 
 -------------------------------------------------------
 Integral Job Info:
 Integral job number is                      11
 Integral operator is                         1
 short-range coefficients                     0
 long-range coefficients              100000000
 Omega coefficients                           0
 if combine SR and LR in K                    0
 Integral screening is                        0
 Integral computing path is                   2
 max size of driver memory is            800000
 size of driver memory is                593474
 size of scratch memory is              2260544
 max col of scratch BK array               1296
 max len of scratch array in speh3          155
 max len of scratch index in speh4           18
 max int batch size is                      520
 min int batch size is                       52
 fixed nKL is                                52
 max L of basis functions is                  2
 order of int derivative is                   0
 number of shells is                         20
 number of basis is                          75
 number of cartesian basis is                75
 number of contracted shell pairs           197
 number of primitive shell pairs           1012
 maxK2 (contraction) of shell pair           36
 max number of K2 of shell pair               1
 max number of CS2 of shell pair             32
 max number of PS2 of shell pair            192
 mem total for path MDJ                   21832
 -------------------------------------------------------
 Smallest overlap matrix eigenvalue = 1.80E-03

 Scale SEOQF with 1.000000e+00/1.000000e-01/1.000000e+00

 Standard Electronic Orientation quadrupole field applied
 Nucleus-field energy     =     0.0000000110 hartrees
 Guess MOs from SCF MO coefficient file
 Reading MOs from coefficient file
 Reading MOs from coefficient file
 An unrestricted Hartree-Fock SCF calculation will be
 performed using Pulay DIIS extrapolation
 SCF converges when DIIS error is below 1.0E-08
 using 8 threads for integral computing 
 ---------------------------------------
  Cycle       Energy         DIIS Error
 ---------------------------------------
    1    -435.3291873505      4.03E-06
    2    -435.3291873934      2.24E-06
    3    -435.3291874119      1.50E-06
    4    -435.3291874407      6.99E-07
    5    -435.3291874489      2.22E-07
    6    -435.3291874493      9.94E-08
    7    -435.3291874494      5.50E-08
    8    -435.3291874494      3.16E-08
    9    -435.3291874494      1.22E-08
   10    -435.3291874494      5.20E-09 Convergence criterion met
 ---------------------------------------
 <S^2> = 0.0000
 SCF time:  CPU 12.32 s  wall 16.39 s
 SCF   energy in the final basis set = -435.3291874494
 Total energy in the final basis set = -435.3291874494
================================================================================
|                                                                              |
|                                 A D C  M A N                                 |
|                                                                              |
 ------------------------------------------------------------------------------ 
|                                                                              |
| Components:                                                                  |
|                                                                              |
| - libvmm - 1.2-release                                                       |
|   Authors:                                                                   |
|   Evgeny Epifanovsky, Ilya Kaliman                                           |
|                                                                              |
| - libtensor - 2.4-trunk                                                      |
|   Authors:                                                                   |
|   Evgeny Epifanovsky, Michael Wormit, Dmitry Zuev, Sam Manzer                |
|                                                                              |
| - libwfa - 1.1-beta                                                          |
|   Authors:                                                                   |
|   Felix Plasser, Stefanie Baeppler, Benjamin Thomitzni, Michael Wormit       |
|                                                                              |
| - libadc - 1.0-beta                                                          |
|   Authors:                                                                   |
|   Michael Wormit, Philipp H. P. Harbach, Caroline Krauter, Dirk Rehn,        |
|   Matthias Schneider, Jan Wenzel                                             |
|                                                                              |
| - adcman - 2.4-beta                                                          |
|   Authors:                                                                   |
|   Michael Wormit, Philipp H. P. Harbach, Caroline Krauter, Dirk Rehn,        |
|   Jan Wenzel, Andreas Dreuw                                                  |
|                                                                              |
| Authors of earlier versions of ADCMAN:                                       |
| Andreas Dreuw, Jan Hendrik Starcke, Dirk Rehn, Michael Wormit                |
|                                                                              |
================================================================================

 
 Alpha MOs, Unrestricted
 -- Occupied --                  
-26.554 -26.534 -26.512 -25.957 -11.735  -1.979  -1.869  -1.819
  1 A     2 A     3 A     4 A     5 A     6 A     7 A     8 A                  
 -1.216  -1.123  -1.038  -1.031  -0.981  -0.867  -0.857  -0.834
  9 A    10 A    11 A    12 A    13 A    14 A    15 A    16 A                  
 -0.812  -0.803  -0.325  -0.325  -0.316
 17 A    18 A    19 A    20 A    21 A                                          
 -- Virtual --                   
 -0.081   0.339   0.361   0.385   0.545   0.585   0.642   0.725
 22 A    23 A    24 A    25 A    26 A    27 A    28 A    29 A                  
  1.187   1.202   1.222   1.278   1.283   1.381   1.471   1.485
 30 A    31 A    32 A    33 A    34 A    35 A    36 A    37 A                  
  1.495   1.508   1.525   1.527   1.632   1.773   1.786   1.854
 38 A    39 A    40 A    41 A    42 A    43 A    44 A    45 A                  
  1.865   1.922   1.963   1.967   1.996   2.037   2.047   2.105
 46 A    47 A    48 A    49 A    50 A    51 A    52 A    53 A                  
  2.261   2.263   2.315   2.351   2.417   2.418   2.429   2.441
 54 A    55 A    56 A    57 A    58 A    59 A    60 A    61 A                  
  2.719   2.758   2.850   2.952   3.106   3.161   3.391   3.404
 62 A    63 A    64 A    65 A    66 A    67 A    68 A    69 A                  
  3.514   4.184   4.473   4.681   4.840   6.429
 70 A    71 A    72 A    73 A    74 A    75 A                                  
 
 Beta MOs, Unrestricted
 -- Occupied --                  
-26.554 -26.534 -26.512 -25.957 -11.735  -1.979  -1.869  -1.819
  1 A     2 A     3 A     4 A     5 A     6 A     7 A     8 A                  
 -1.216  -1.123  -1.038  -1.031  -0.981  -0.867  -0.857  -0.834
  9 A    10 A    11 A    12 A    13 A    14 A    15 A    16 A                  
 -0.812  -0.803  -0.325  -0.325  -0.316
 17 A    18 A    19 A    20 A    21 A                                          
 -- Virtual --                   
 -0.081   0.339   0.361   0.385   0.545   0.585   0.642   0.725
 22 A    23 A    24 A    25 A    26 A    27 A    28 A    29 A                  
  1.187   1.202   1.222   1.278   1.283   1.381   1.471   1.485
 30 A    31 A    32 A    33 A    34 A    35 A    36 A    37 A                  
  1.495   1.508   1.525   1.527   1.632   1.773   1.786   1.854
 38 A    39 A    40 A    41 A    42 A    43 A    44 A    45 A                  
  1.865   1.922   1.963   1.967   1.996   2.037   2.047   2.105
 46 A    47 A    48 A    49 A    50 A    51 A    52 A    53 A                  
  2.261   2.263   2.315   2.351   2.417   2.418   2.429   2.441
 54 A    55 A    56 A    57 A    58 A    59 A    60 A    61 A                  
  2.719   2.758   2.850   2.952   3.106   3.161   3.391   3.404
 62 A    63 A    64 A    65 A    66 A    67 A    68 A    69 A                  
  3.514   4.184   4.473   4.681   4.840   6.429
 70 A    71 A    72 A    73 A    74 A    75 A                                  
 

--------------------------------------------------------------------------------
                                   HF Summary                                   
--------------------------------------------------------------------------------
  Energy:                                                 -435.3291874494 a.u.
  Dip. moment [a.u.]:                  [ -57.623025,  183.499670,    1.617303]
  Total dipole [Debye]:                                             488.882793
  <r^2> [a.u.]:                        [ 166.765722,  959.592401,   94.439611]
  Total <r^2> [a.u.]:                                              1220.797733
--------------------------------------------------------------------------------

--------------------------------------------------------------------------------
                                 MP(2) Summary                                  
--------------------------------------------------------------------------------
  Energy contribution:                                      -0.8121861774 a.u.
  Total energy:                                           -436.1413736268 a.u.
  Dip. moment [a.u.]:                  [ -57.393627,  184.084557,    1.393649]
  Total dipole [Debye]:                                             490.122994
  <r^2> [a.u.]:                        [ 166.046108,  964.715837,   94.284479]
  Total <r^2> [a.u.]:                                              1225.046423
--------------------------------------------------------------------------------
  Starting Davidson ... 
--------------------------------------------------------------------------------
   It NVec Conv  Avg. Norm  Max. Norm  Conv. states           Remark
--------------------------------------------------------------------------------
        20    0  2.083e-01  1.064e+00 10.9476 n n n n n n n n Guess.
    1   40    0  6.872e-02  1.056e+00 10.7745 n n n n n n n n 
    2   60    0  5.300e-02  8.378e-01 10.7732 n n n n n n n n 
    3   80    0  4.280e-02  7.059e-01 10.7731 n n n n n n n n 
    4  100    0  3.996e-02  6.714e-01 10.7731 n n n n n n n n 
    5   40    0  3.603e-02  5.967e-01 10.7731 n n n n n n n n Subspace collapsed.
    6   60    0  3.410e-02  5.734e-01 10.7731 n n n n n n n n 
    7   80    0  3.362e-02  5.613e-01 10.7731 n n n n n n n n 
    8  100    2  3.161e-02  5.305e-01 10.7731 y y n n n n n n 
    9   40    6  2.966e-02  5.072e-01 10.7731 y y n n y y y y Subspace collapsed.
   10   60    8  2.905e-02  5.010e-01 10.7731 y y n y y y y y 
   11   80   10  2.743e-02  4.737e-01 10.7731 y y y y y y y y 
   12  100   14  2.569e-02  4.471e-01 10.7731 y y y y y y y y 
   13   40   14  2.406e-02  4.170e-01 10.7731 y y y y y y y y Subspace collapsed.
   14   60   14  2.356e-02  4.099e-01 10.7731 y y y y y y y y 
   15   80   14  2.219e-02  3.919e-01 10.7731 y y y y y y y y 
   16  100   14  2.123e-02  3.751e-01 10.7731 y y y y y y y y 
   17   39   14  2.000e-02  3.502e-01 10.7731 y y y y y y y y Subspace collapsed.
   18   58   14  1.915e-02  3.352e-01 10.7731 y y y y y y y y 
   19   75   14  1.865e-02  3.260e-01 10.7731 y y y y y y y y 
   20   76   14  1.862e-02  3.264e-01 10.7731 y y y y y y y y 
   21   89   16  1.752e-02  3.076e-01 10.7731 y y y y y y y y 
   22  100   16  1.857e-02  2.957e-01 10.7731 y y y y y y y y 
   23   32   16  1.775e-02  2.898e-01 10.7731 y y y y y y y y Subspace collapsed.
   24   43   16  1.704e-02  2.801e-01 10.7731 y y y y y y y y 
   25   54   16  1.647e-02  2.760e-01 10.7731 y y y y y y y y 
   26   54   16  1.647e-02  2.760e-01 10.7731 y y y y y y y y 
   27   74   16  1.497e-02  2.615e-01 10.7731 y y y y y y y y 
   28   82   16  1.413e-02  2.470e-01 10.7731 y y y y y y y y 
   29   89   16  1.254e-02  2.183e-01 10.7731 y y y y y y y y 
   30   89   16  1.254e-02  2.183e-01 10.7731 y y y y y y y y 
   31   89   16  1.254e-02  2.183e-01 10.7731 y y y y y y y y 
   32  100   16  1.133e-02  1.982e-01 10.7731 y y y y y y y y 
   33   20   16  1.133e-02  1.982e-01 10.7731 y y y y y y y y Subspace collapsed.
   34   21   16  1.133e-02  1.981e-01 10.7731 y y y y y y y y 
   35   21   16  1.133e-02  1.981e-01 10.7731 y y y y y y y y 
   36   27   16  1.125e-02  1.967e-01 10.7731 y y y y y y y y 
   37   27   16  1.125e-02  1.967e-01 10.7731 y y y y y y y y 
   38   29   16  1.116e-02  1.954e-01 10.7731 y y y y y y y y 
   39   37   16  1.073e-02  1.879e-01 10.7731 y y y y y y y y 
   40   45   16  1.045e-02  1.836e-01 10.7731 y y y y y y y y 
   41   52   16  9.942e-03  1.779e-01 10.7731 y y y y y y y y 
   42   58   16  2.789e-02  5.351e-01 10.7731 y y y y y y y y 
   43   64   16  1.734e-02  3.227e-01 10.7731 y y y y y y y y 
   44   64   16  1.734e-02  3.227e-01 10.7731 y y y y y y y y 
   45   64   16  1.734e-02  3.227e-01 10.7731 y y y y y y y y 
   46   84   16  9.739e-03  1.735e-01 10.7731 y y y y y y y y 
   47   84   16  9.739e-03  1.735e-01 10.7731 y y y y y y y y 
   48   85   16  9.688e-03  1.727e-01 10.7731 y y y y y y y y 
   49   86   16  9.691e-03  1.727e-01 10.7731 y y y y y y y y 
   50   87   16  9.637e-03  1.727e-01 10.7731 y y y y y y y y 
   51   88   16  8.996e-03  1.584e-01 10.7731 y y y y y y y y 
   52   90   16  8.919e-03  1.566e-01 10.7731 y y y y y y y y 
   53   93   15  8.865e-03  1.561e-01 10.7731 y y y y y y y n 
   54   97    2  8.797e-03  1.547e-01 10.7731 n n y n n n n n 
   55  100    0  8.678e-03  1.522e-01 10.7731 n n n n n n n n 
   56   40    0  7.411e-03  1.297e-01 10.7731 n n n n n n n n Subspace collapsed.
   57   60    2  6.525e-03  1.107e-01 10.7731 n n y n n n n n 
   58   80    0  4.956e-03  9.153e-02 10.7731 n n n n n n n n 
   59  100    0  4.267e-03  8.077e-02 10.7731 n n n n n n n n 
--------------------------------------------------------------------------------
  Davidson Summary: 
 ------------------------------------------------------------
  State  0: excitation energy =  10.7731 a.u.   (not converged)
  State  1: excitation energy =  10.8378 a.u.   (not converged)
  State  2: excitation energy =  11.1555 a.u.   (not converged)
  State  3: excitation energy =  11.2106 a.u.   (not converged)
  State  4: excitation energy =  11.2326 a.u.   (not converged)
  State  5: excitation energy =  11.2573 a.u.   (not converged)
  State  6: excitation energy =  11.2830 a.u.   (not converged)
  State  7: excitation energy =  11.3194 a.u.   (not converged)
  State  8: excitation energy =  11.4692 a.u.   (not converged)
  State  9: excitation energy =  11.5185 a.u.   (not converged)
  State 10: excitation energy =  11.5277 a.u.   (not converged)
  State 11: excitation energy =  11.5291 a.u.   (not converged)
  State 12: excitation energy =  11.5378 a.u.   (not converged)
  State 13: excitation energy =  11.5540 a.u.   (not converged)
  State 14: excitation energy =  11.6804 a.u.   (not converged)
  State 15: excitation energy =  11.7029 a.u.   (not converged)
  State 16: excitation energy =  11.8889 a.u.   (not converged)
  State 17: excitation energy =  11.8890 a.u.   (not converged)
  State 18: excitation energy =  11.8980 a.u.   (not converged)
  State 19: excitation energy =  11.8998 a.u.   (not converged)
 ------------------------------------------------------------


--------------------------------------------------------------------------------
                             Excited State Summary
--------------------------------------------------------------------------------

  Excited state  1 (A)                                         [not converged]
  ----------------------------------------------------------------------------
  Term symbol:  2 (-) A                                     R^2 =  1.26938e-05

  Total energy:                                           -425.3682392087 a.u.
  Excitation energy:                                             293.151896 eV


  V1^2 = 0.9530, V2^2 = 0.0470

  Important amplitudes:
     core i     occ j      vir a      vir b          v   
    ------------------------------------------------------
     5 (A) A              22 (A) A                 0.6477
     5 (A) B              22 (A) B                -0.6477
    ------------------------------------------------------
  ----------------------------------------------------------------------------


  Excited state  2 (A)                                         [not converged]
  ----------------------------------------------------------------------------
  Term symbol:  3 (-) A                                     R^2 =  1.45483e-05

  Total energy:                                           -425.3035628657 a.u.
  Excitation energy:                                             294.911829 eV


  V1^2 = 0.9467, V2^2 = 0.0533

  Important amplitudes:
     core i     occ j      vir a      vir b          v   
    ------------------------------------------------------
     5 (A) A              22 (A) A                 0.6616
     5 (A) B              22 (A) B                 0.6616
    ------------------------------------------------------
  ----------------------------------------------------------------------------


  Excited state  3 (A)                                         [not converged]
  ----------------------------------------------------------------------------
  Term symbol:  4 (-) A                                     R^2 =  3.63244e-05

  Total energy:                                           -424.9858342574 a.u.
  Excitation energy:                                             303.557664 eV


  V1^2 = 0.9483, V2^2 = 0.0517

  Important amplitudes:
     core i     occ j      vir a      vir b          v   
    ------------------------------------------------------
     5 (A) A              23 (A) A                -0.4915
     5 (A) B              23 (A) B                 0.4915
    ------------------------------------------------------
  ----------------------------------------------------------------------------


  Excited state  4 (A)                                         [not converged]
  ----------------------------------------------------------------------------
  Term symbol:  5 (-) A                                     R^2 =  1.32111e-04

  Total energy:                                           -424.9307513448 a.u.
  Excitation energy:                                             305.056547 eV


  V1^2 = 0.9418, V2^2 = 0.0582

  Important amplitudes:
     core i     occ j      vir a      vir b          v   
    ------------------------------------------------------
     5 (A) A              24 (A) A                 0.3647
     5 (A) B              24 (A) B                -0.3647
    ------------------------------------------------------
  ----------------------------------------------------------------------------


  Excited state  5 (A)                                         [not converged]
  ----------------------------------------------------------------------------
  Term symbol:  6 (-) A                                     R^2 =  2.58232e-04

  Total energy:                                           -424.9087933756 a.u.
  Excitation energy:                                             305.654053 eV


  V1^2 = 0.9392, V2^2 = 0.0608

  Important amplitudes:
     core i     occ j      vir a      vir b          v   
    ------------------------------------------------------
     5 (A) A              23 (A) A                -0.5363
     5 (A) B              23 (A) B                -0.5363
    ------------------------------------------------------
  ----------------------------------------------------------------------------


  Excited state  6 (A)                                         [not converged]
  ----------------------------------------------------------------------------
  Term symbol:  7 (-) A                                     R^2 =  2.19203e-05

  Total energy:                                           -424.8840343785 a.u.
  Excitation energy:                                             306.327780 eV


  V1^2 = 0.9378, V2^2 = 0.0622

  Important amplitudes:
     core i     occ j      vir a      vir b          v   
    ------------------------------------------------------
     5 (A) B              25 (A) B                 0.4168
     5 (A) A              25 (A) A                -0.4168
    ------------------------------------------------------
  ----------------------------------------------------------------------------


  Excited state  7 (A)                                         [not converged]
  ----------------------------------------------------------------------------
  Term symbol:  8 (-) A                                     R^2 =  4.65380e-05

  Total energy:                                           -424.8583300866 a.u.
  Excitation energy:                                             307.027229 eV


  V1^2 = 0.9301, V2^2 = 0.0699

  Important amplitudes:
     core i     occ j      vir a      vir b          v   
    ------------------------------------------------------
     5 (A) B              25 (A) B                -0.4226
     5 (A) A              25 (A) A                -0.4226
    ------------------------------------------------------
  ----------------------------------------------------------------------------


  Excited state  8 (A)                                         [not converged]
  ----------------------------------------------------------------------------
  Term symbol:  9 (-) A                                     R^2 =  3.18769e-05

  Total energy:                                           -424.8219698656 a.u.
  Excitation energy:                                             308.016641 eV


  V1^2 = 0.9279, V2^2 = 0.0721

  Important amplitudes:
     core i     occ j      vir a      vir b          v   
    ------------------------------------------------------
     5 (A) A              25 (A) A                 0.4238
     5 (A) B              25 (A) B                 0.4238
    ------------------------------------------------------
  ----------------------------------------------------------------------------


  Excited state  9 (A)                                         [not converged]
  ----------------------------------------------------------------------------
  Term symbol:  10 (-) A                                    R^2 =  6.75328e-05

  Total energy:                                           -424.6721662974 a.u.
  Excitation energy:                                             312.093004 eV


  V1^2 = 0.9207, V2^2 = 0.0793

  Important amplitudes:
     core i     occ j      vir a      vir b          v   
    ------------------------------------------------------
     5 (A) A              26 (A) A                -0.5652
     5 (A) B              26 (A) B                 0.5652
    ------------------------------------------------------
  ----------------------------------------------------------------------------


  Excited state 10 (A)                                         [not converged]
  ----------------------------------------------------------------------------
  Term symbol:  11 (-) A                                    R^2 =  5.86347e-05

  Total energy:                                           -424.6228622710 a.u.
  Excitation energy:                                             313.434634 eV


  V1^2 = 0.8954, V2^2 = 0.1046

  Important amplitudes:
     core i     occ j      vir a      vir b          v   
    ------------------------------------------------------
     5 (A) B              27 (A) B                -0.4516
     5 (A) A              27 (A) A                 0.4516
    ------------------------------------------------------
  ----------------------------------------------------------------------------


  Excited state 11 (A)                                         [not converged]
  ----------------------------------------------------------------------------
  Term symbol:  12 (-) A                                    R^2 =  4.86959e-05

  Total energy:                                           -424.6136509371 a.u.
  Excitation energy:                                             313.685288 eV


  V1^2 = 0.8975, V2^2 = 0.1025

  Important amplitudes:
     core i     occ j      vir a      vir b          v   
    ------------------------------------------------------
     5 (A) A              24 (A) A                 0.4632
     5 (A) B              24 (A) B                -0.4632
    ------------------------------------------------------
  ----------------------------------------------------------------------------


  Excited state 12 (A)                                         [not converged]
  ----------------------------------------------------------------------------
  Term symbol:  13 (-) A                                    R^2 =  3.87487e-05

  Total energy:                                           -424.6122782739 a.u.
  Excitation energy:                                             313.722640 eV


  V1^2 = 0.9142, V2^2 = 0.0858

  Important amplitudes:
     core i     occ j      vir a      vir b          v   
    ------------------------------------------------------
     5 (A) B              26 (A) B                -0.6387
     5 (A) A              26 (A) A                -0.6387
    ------------------------------------------------------
  ----------------------------------------------------------------------------


  Excited state 13 (A)                                         [not converged]
  ----------------------------------------------------------------------------
  Term symbol:  14 (-) A                                    R^2 =  1.10311e-05

  Total energy:                                           -424.6036070504 a.u.
  Excitation energy:                                             313.958596 eV


  V1^2 = 0.9020, V2^2 = 0.0980

  Important amplitudes:
     core i     occ j      vir a      vir b          v   
    ------------------------------------------------------
     5 (A) B              27 (A) B                -0.5495
     5 (A) A              27 (A) A                -0.5495
    ------------------------------------------------------
  ----------------------------------------------------------------------------


  Excited state 14 (A)                                         [not converged]
  ----------------------------------------------------------------------------
  Term symbol:  15 (-) A                                    R^2 =  3.72831e-05

  Total energy:                                           -424.5874206727 a.u.
  Excitation energy:                                             314.399049 eV


  V1^2 = 0.9053, V2^2 = 0.0947

  Important amplitudes:
     core i     occ j      vir a      vir b          v   
    ------------------------------------------------------
     5 (A) B              28 (A) B                -0.5212
     5 (A) A              28 (A) A                -0.5212
    ------------------------------------------------------
  ----------------------------------------------------------------------------


  Excited state 15 (A)                                         [not converged]
  ----------------------------------------------------------------------------
  Term symbol:  16 (-) A                                    R^2 =  1.10575e-05

  Total energy:                                           -424.4609297336 a.u.
  Excitation energy:                                             317.841043 eV


  V1^2 = 0.8809, V2^2 = 0.1191

  Important amplitudes:
     core i     occ j      vir a      vir b          v   
    ------------------------------------------------------
     5 (A) A              29 (A) A                -0.5557
     5 (A) B              29 (A) B                 0.5557
    ------------------------------------------------------
  ----------------------------------------------------------------------------


  Excited state 16 (A)                                         [not converged]
  ----------------------------------------------------------------------------
  Term symbol:  17 (-) A                                    R^2 =  1.15865e-05

  Total energy:                                           -424.4384511854 a.u.
  Excitation energy:                                             318.452715 eV


  V1^2 = 0.8835, V2^2 = 0.1165

  Important amplitudes:
     core i     occ j      vir a      vir b          v   
    ------------------------------------------------------
     5 (A) A              29 (A) A                 0.5997
     5 (A) B              29 (A) B                 0.5997
    ------------------------------------------------------
  ----------------------------------------------------------------------------


  Excited state 17 (A)                                         [not converged]
  ----------------------------------------------------------------------------
  Term symbol:  18 (-) A                                    R^2 =  1.78303e-02

  Total energy:                                           -424.2525061600 a.u.
  Excitation energy:                                             323.512537 eV


  V1^2 = 0.0018, V2^2 = 0.9982

  Important amplitudes:
     core i     occ j      vir a      vir b          v   
    ------------------------------------------------------
     5 (A) B   21 (A) A   22 (A) A   22 (A) B     -0.5408
     5 (A) A   21 (A) B   22 (A) A   22 (A) B     -0.4539
    ------------------------------------------------------
  ----------------------------------------------------------------------------


  Excited state 18 (A)                                         [not converged]
  ----------------------------------------------------------------------------
  Term symbol:  19 (-) A                                    R^2 =  3.39266e-03

  Total energy:                                           -424.2523473474 a.u.
  Excitation energy:                                             323.516858 eV


  V1^2 = 0.0025, V2^2 = 0.9975

  Important amplitudes:
     core i     occ j      vir a      vir b          v   
    ------------------------------------------------------
     5 (A) A   21 (A) B   22 (A) A   22 (A) B     -0.5407
     5 (A) B   21 (A) A   22 (A) A   22 (A) B      0.4541
    ------------------------------------------------------
  ----------------------------------------------------------------------------


  Excited state 19 (A)                                         [not converged]
  ----------------------------------------------------------------------------
  Term symbol:  20 (-) A                                    R^2 =  2.07465e-02

  Total energy:                                           -424.2433323720 a.u.
  Excitation energy:                                             323.762168 eV


  V1^2 = 0.0000, V2^2 = 1.0000

  Important amplitudes:
     core i     occ j      vir a      vir b          v   
    ------------------------------------------------------
     5 (A) A   19 (A) B   22 (A) A   22 (A) B     -0.4946
     5 (A) B   19 (A) A   22 (A) A   22 (A) B      0.4917
    ------------------------------------------------------
  ----------------------------------------------------------------------------


  Excited state 20 (A)                                         [not converged]
  ----------------------------------------------------------------------------
  Term symbol:  21 (-) A                                    R^2 =  8.07710e-02

  Total energy:                                           -424.2416171029 a.u.
  Excitation energy:                                             323.808843 eV


  V1^2 = 0.0005, V2^2 = 0.9995

  Important amplitudes:
     core i     occ j      vir a      vir b          v   
    ------------------------------------------------------
     5 (A) B   20 (A) A   22 (A) A   22 (A) B     -0.5442
     5 (A) A   20 (A) B   22 (A) A   22 (A) B      0.3157
    ------------------------------------------------------
  ----------------------------------------------------------------------------


--------------------------------------------------------------------------------
  Time of ADC calculation:  CPU 3637.18 s  wall 2207.10 s
================================================================================
 
 --------------------------------------------------------------
 
                    Orbital Energies (a.u.)
 --------------------------------------------------------------
 
 Alpha MOs
 -- Occupied --
-26.554 -26.534 -26.512 -25.957 -11.735  -1.979  -1.869  -1.819
 -1.216  -1.123  -1.038  -1.031  -0.981  -0.867  -0.857  -0.834
 -0.812  -0.803  -0.325  -0.325  -0.316
 -- Virtual --
 -0.081   0.339   0.361   0.385   0.545   0.585   0.642   0.725
  1.187   1.202   1.222   1.278   1.283   1.381   1.471   1.485
  1.495   1.508   1.525   1.527   1.632   1.773   1.786   1.854
  1.865   1.922   1.963   1.967   1.996   2.037   2.047   2.105
  2.261   2.263   2.315   2.351   2.417   2.418   2.429   2.441
  2.719   2.758   2.850   2.952   3.106   3.161   3.391   3.404
  3.514   4.184   4.473   4.681   4.840   6.429
 
 Beta MOs
 -- Occupied --
-26.554 -26.534 -26.512 -25.957 -11.735  -1.979  -1.869  -1.819
 -1.216  -1.123  -1.038  -1.031  -0.981  -0.867  -0.857  -0.834
 -0.812  -0.803  -0.325  -0.325  -0.316
 -- Virtual --
 -0.081   0.339   0.361   0.385   0.545   0.585   0.642   0.725
  1.187   1.202   1.222   1.278   1.283   1.381   1.471   1.485
  1.495   1.508   1.525   1.527   1.632   1.773   1.786   1.854
  1.865   1.922   1.963   1.967   1.996   2.037   2.047   2.105
  2.261   2.263   2.315   2.351   2.417   2.418   2.429   2.441
  2.719   2.758   2.850   2.952   3.106   3.161   3.391   3.404
  3.514   4.184   4.473   4.681   4.840   6.429
 --------------------------------------------------------------
 
          Ground-State Mulliken Net Atomic Charges

     Atom                 Charge (a.u.)    Spin (a.u.)
  --------------------------------------------------------
      1 C                     1.112650       0.000000
      2 F                    -0.008941       0.000000
      3 F                    -0.143752       0.000000
      4 F                    -0.876497       0.000000
      5 F                    -0.083461       0.000000
  --------------------------------------------------------
  Sum of atomic charges =     0.000000
  Sum of spin   charges =     0.000000

 -----------------------------------------------------------------
                    Cartesian Multipole Moments
 -----------------------------------------------------------------
    Charge (ESU x 10^10)
                 0.0000
    Dipole Moment (Debye)
         X       3.7569      Y       9.6808      Z      -3.7486
       Tot      11.0401
    Quadrupole Moments (Debye-Ang)
        XX     -28.4915     XY      -0.6146     YY      13.6115
        XZ       3.6362     YZ      -5.7550     ZZ     -23.9066
    Octopole Moments (Debye-Ang^2)
       XXX      57.3652    XXY     -55.3503    XYY       6.9873
       YYY     -40.1755    XXZ      -4.5736    XYZ       3.4631
       YYZ     -15.0040    XZZ      17.8697    YZZ     -52.5745
       ZZZ      -2.4157
    Hexadecapole Moments (Debye-Ang^3)
      XXXX    -154.0198   XXXY     108.4495   XXYY    -169.1990
      XYYY      71.8032   YYYY    -500.9833   XXXZ      10.5135
      XXYZ       0.5616   XYYZ       6.7468   YYYZ     -36.1516
      XXZZ     -38.2324   XYZZ      34.6636   YYZZ    -156.3689
      XZZZ       6.4865   YZZZ       9.9996   ZZZZ     -78.5825
 -----------------------------------------------------------------
Archival summary:
1\1\tp-linux1\SP\HF\6-31G*\41\thomas\FriMar1705:44:152017FriMar1705:44:152017\0\\#,HF,6-31G*,\\0,1\F\C,1,1.16945\F,2,1.21457,1,116.718\F,2,1.26509,1,114.797,3,-135.071,0\F,1,2.5434,2,80.9832,3,66.9867,0\\HF=-435.329187\\@

 Total job time:  2225.69s(wall), 3653.48s(cpu) 
 Fri Mar 17 05:44:15 2017

        *************************************************************
        *                                                           *
        *  Thank you very much for using Q-Chem.  Have a nice day.  *
        *                                                           *
        *************************************************************


0 sent ACK to 0 
now end server 0 ... 
cleanup process ... done
