
Running Job 1 of 2 ddtraj3t27.inp
qchem ddtraj3t27.inp_8189.0 /scratch/qchem/qchem8189/ 1
/mnt/software/qchem/bin/mpi/mpirun_qchem -machinefile /mnt/software/qchem/bin/mpi/machines -np 1 /mnt/software/qchem/exe/qcprog.exe ddtraj3t27.inp_8189.0 /scratch/qchem/qchem8189/

Process 0 of 1 is on tp-linux1 - thread support 0
initial socket setup ...start
initial socket setup ...done 
now start server 0 ... 

cmd = ssh tp-linux1 /mnt/software/qchem/bin/get_hostid 275389058 > /scratch/qchem/qchem8189/lic.dat
                  Welcome to Q-Chem
     A Quantum Leap Into The Future Of Chemistry


 Q-Chem 4.3, Q-Chem, Inc., Pleasanton, CA (2015)

 Y. Shao,  Z. Gan,  E. Epifanovsky,  A. T. B. Gilbert,  M. Wormit,  
 J. Kussmann,  A. W. Lange,  A. Behn,  J. Deng,  X. Feng,  D. Ghosh,  
 M. Goldey,  P. R. Horn,  L. D. Jacobson,  I. Kaliman,  R. Z. Khaliullin,  
 T. Kus,  A. Landau,  J. Liu,  E. I. Proynov,  Y. M. Rhee,  R. M. Richard,  
 M. A. Rohrdanz,  R. P. Steele,  E. J. Sundstrom,  H. L. Woodcock III,  
 P. M. Zimmerman,  D. Zuev,  B. Albrecht,  E. Alguire,  B. Austin,  
 S. A. Baeppler,  G. J. O. Beran,  Y. A. Bernard,  E. Berquist,  
 K. Brandhorst,  K. B. Bravaya,  S. T. Brown,  D. Casanova,  C.-M. Chang,  
 Y. Chen,  S. H. Chien,  K. D. Closser,  D. L. Crittenden,  M. Diedenhofen,  
 R. A. DiStasio Jr.,  H. Do,  A. D. Dutoi,  R. G. Edgar,  P.-T. Fang,  
 S. Fatehi,  Q. Feng,  L. Fusti-Molnar,  A. Ghysels,  
 A. Golubeva-Zadorozhnaya,  J. Gomes,  A. Gunina,  M. W. D. Hanson-Heine,  
 P. H. P. Harbach,  A. W. Hauser,  E. G. Hohenstein,  Z. C. Holden,  K. Hui,  
 T.-C. Jagau,  H. Ji,  B. Kaduk,  K. Khistyaev,  Jaehoon Kim,  Jihan Kim,  
 R. A. King,  P. Klunzinger,  D. Kosenkov,  T. Kowalczyk,  C. M. Krauter,  
 K. U. Lao,  A. Laurent,  K. V. Lawler,  S. Lehtola,  S. V. Levchenko,  
 C. Y. Lin,  Y.-S. Lin,  F. Liu,  E. Livshits,  R. C. Lochan,  A. Luenser,  
 P. Manohar,  S. F. Manzer,  S.-P. Mao,  N. Mardirossian,  A. V. Marenich,  
 L. A. Martinez-Martinez,  S. A. Maurer,  N. J. Mayhall,  K. Nanda,  
 C. M. Oana,  R. Olivares-Amaya,  D. P. O'Neill,  J. A. Parkhill,  
 T. M. Perrine,  R. Peverati,  P. A. Pieniazek,  F. Plasser,  A. Prociuk,  
 D. R. Rehn,  E. Rosta,  N. J. Russ,  N. Sergueev,  S. M. Sharada,  
 S. Sharma,  D. W. Small,  A. Sodt,  T. Stauch,  T. Stein,  D. Stuck,  
 Y.-C. Su,  A. J. W. Thom,  T. Tsuchimochi,  L. Vogt,  O. Vydrov,  T. Wang,  
 M. A. Watson,  J. Wenzel,  A. White,  C. F. Williams,  V. Vanovschi,  
 S. Yeganeh,  S. R. Yost,  Z.-Q. You,  I. Y. Zhang,  X. Zhang,  Y. Zhao,  
 B. R. Brooks,  G. K. L. Chan,  D. M. Chipman,  C. J. Cramer,  
 W. A. Goddard III,  M. S. Gordon,  W. J. Hehre,  A. Klamt,  
 H. F. Schaefer III,  M. W. Schmidt,  C. D. Sherrill,  D. G. Truhlar,  
 A. Warshel,  X. Xu,  A. Aspuru-Guzik,  R. Baer,  A. T. Bell,  N. A. Besley,  
 J.-D. Chai,  A. Dreuw,  B. D. Dunietz,  T. R. Furlani,  S. R. Gwaltney,  
 C.-P. Hsu,  Y. Jung,  J. Kong,  D. S. Lambrecht,  W. Liang,  C. Ochsenfeld,  
 V. A. Rassolov,  L. V. Slipchenko,  J. E. Subotnik,  T. Van Voorhis,  
 J. M. Herbert,  A. I. Krylov,  P. M. W. Gill,  M. Head-Gordon

 Contributors to earlier versions of Q-Chem not listed above: 
 R. D. Adamson,  J. Baker,  E. F. C. Byrd,  A. K. Chakraborty,  C.-L. Cheng,  
 H. Dachsel,  R. J. Doerksen,  G. Hawkins,  A. Heyden,  S. Hirata,  
 G. Kedziora,  F. J. Keil,  C. Kelley,  P. P. Korambath,  W. Kurlancheek,  
 A. M. Lee,  M. S. Lee,  D. Liotard,  I. Lotan,  P. E. Maslen,  N. Nair,  
 D. Neuhauser,  R. Olson,  B. Peters,  J. Ritchie,  N. E. Schultz,  
 N. Shenvi,  A. C. Simmonett,  K. S. Thanthiriwatte,  Q. Wu,  W. Zhang

 Please cite Q-Chem as follows:
 Y. Shao et al., Mol. Phys. 113, 184-215 (2015)
 DOI: 10.1080/00268976.2014.952696

 Q-Chem 4.3.0 for Intel X86 Linux

 Parts of Q-Chem use Armadillo 5.200.1 (Boston Tea Smuggler).
 http://arma.sourceforge.net/

 Q-Chem begins on Sat Mar 18 11:19:42 2017  

Host: 
0

     Scratch files written to /scratch/qchem/qchem8189//
 Nov1815 1189b_ 19540  19532 5443   
 Parallel job on  1  processors
Processing $rem in /mnt/software/qchem/config/preferences.
 MEM_TOTAL  2000 

Checking the input file for inconsistencies... 	...done.

--------------------------------------------------------------
User input:
--------------------------------------------------------------
$comment
XAS calculation for the 2b valence excited for water using cvs-adc(2)-x + 6-311+G* basis set
job 1 - determination of HF orbitals
$end

$molecule
0 1
6  -0.344705  2.909102  -0.27874
9  0.708861  2.59758  -0.126476
9  -1.120434  3.113705  0.784056
9  -1.58526  0.751111  0.788564
9  -1.038382  2.630616  -1.268472
$end

$rem
jobtype      sp
sym_ignore true
exchange     hf
basis        6-31G*
unrestricted true
$end

--------------------------------------------------------------
 ----------------------------------------------------------------
             Standard Nuclear Orientation (Angstroms)
    I     Atom           X                Y                Z
 ----------------------------------------------------------------
    1      C      -0.3447050000     2.9091020000    -0.2787400000
    2      F       0.7088610000     2.5975800000    -0.1264760000
    3      F      -1.1204340000     3.1137050000     0.7840560000
    4      F      -1.5852600000     0.7511110000     0.7885640000
    5      F      -1.0383820000     2.6306160000    -1.2684720000
 ----------------------------------------------------------------
 Nuclear Repulsion Energy =   188.7919924622 hartrees
 There are       21 alpha and       21 beta electrons
 Requested basis set is 6-31G(d)
 There are 20 shells and 75 basis functions

 Total QAlloc Memory Limit   2000 MB
 Mega-Array Size        61 MB
 MEM_STATIC part        62 MB

                       Distance Matrix (Angstroms)
             C (  1)   F (  2)   F (  3)   F (  4)
   F (  2)  1.109158
   F (  3)  1.331598  2.107552
   F (  4)  2.708328  3.083786  2.407890
   F (  5)  1.240287  2.087607  2.110208  2.839544
 
 tim1(1): 
  4.000000000000004E-003
 tim1(2): 
  0.000000000000000E+000
 A cutoff of  1.0D-08 yielded    189 shell pairs
 There are      2888 function pairs
 
 -------------------------------------------------------
 OpenMP Integral Computing Module                       
 Release: version 1.0, May 2013, Q-Chem Inc. Pittsburgh 
 -------------------------------------------------------
 Integral Job Info:
 Integral job number is                      11
 Integral operator is                         1
 short-range coefficients                     0
 long-range coefficients              100000000
 Omega coefficients                           0
 if combine SR and LR in K                    0
 Integral screening is                        0
 Integral computing path is                   2
 max size of driver memory is            800000
 size of driver memory is                593474
 size of scratch memory is              2260544
 max col of scratch BK array               1296
 max len of scratch array in speh3          155
 max len of scratch index in speh4           18
 max int batch size is                      520
 min int batch size is                       52
 fixed nKL is                                52
 max L of basis functions is                  2
 order of int derivative is                   0
 number of shells is                         20
 number of basis is                          75
 number of cartesian basis is                75
 number of contracted shell pairs           189
 number of primitive shell pairs            915
 maxK2 (contraction) of shell pair           36
 max number of K2 of shell pair               1
 max number of CS2 of shell pair             27
 max number of PS2 of shell pair            180
 mem total for path MDJ                   18100
 -------------------------------------------------------
 Smallest overlap matrix eigenvalue = 3.01E-03

 Scale SEOQF with 1.000000e-01/1.000000e-01/1.000000e+00

 Standard Electronic Orientation quadrupole field applied
 Nucleus-field energy     =    -0.0000000073 hartrees
 Guess from superposition of atomic densities
 Warning:  Energy on first SCF cycle will be non-variational
 An unrestricted Hartree-Fock SCF calculation will be
 performed using Pulay DIIS extrapolation
 SCF converges when DIIS error is below 1.0E-05
 using 8 threads for integral computing 
 ---------------------------------------
  Cycle       Energy         DIIS Error
 ---------------------------------------
    1    -436.4104660527      9.39E-02
    2    -435.0541034494      2.18E-02
    3    -433.8283328329      4.10E-02
    4    -435.2542649633      1.13E-02
    5    -435.2937177429      6.65E-03
    6    -435.3160998461      2.46E-03
    7    -435.3196170956      8.53E-04
    8    -435.3201948999      2.08E-04
    9    -435.3202532561      5.60E-05
   10    -435.3202645008      1.93E-05
   11    -435.3202676435      1.01E-05
   12    -435.3202687868      4.35E-06 Convergence criterion met
 ---------------------------------------
 <S^2> = 0.0000
 SCF time:  CPU 13.55 s  wall 2.90 s
 SCF   energy in the final basis set = -435.3202687868
 Total energy in the final basis set = -435.3202687868
 
 --------------------------------------------------------------
 
                    Orbital Energies (a.u.)
 --------------------------------------------------------------
 
 Alpha MOs
 -- Occupied --
-26.617 -26.539 -26.481 -25.938 -11.754  -2.047  -1.881  -1.769
 -1.199  -1.164  -1.067  -1.039  -1.024  -0.881  -0.865  -0.842
 -0.786  -0.783  -0.308  -0.305  -0.305
 -- Virtual --
 -0.039   0.266   0.324   0.395   0.525   0.551   0.662   0.749
  1.122   1.198   1.250   1.265   1.297   1.395   1.428   1.465
  1.471   1.521   1.547   1.553   1.589   1.763   1.779   1.823
  1.849   1.918   1.955   1.985   2.012   2.081   2.100   2.129
  2.152   2.196   2.274   2.290   2.432   2.433   2.443   2.478
  2.579   2.674   2.771   2.957   3.071   3.232   3.360   3.459
  3.532   4.185   4.492   4.690   4.996   5.438
 
 Beta MOs
 -- Occupied --
-26.617 -26.539 -26.481 -25.938 -11.754  -2.047  -1.881  -1.769
 -1.199  -1.164  -1.067  -1.039  -1.024  -0.881  -0.865  -0.842
 -0.786  -0.783  -0.308  -0.305  -0.305
 -- Virtual --
 -0.039   0.266   0.324   0.395   0.525   0.551   0.662   0.749
  1.122   1.198   1.250   1.265   1.297   1.395   1.428   1.465
  1.471   1.521   1.547   1.553   1.589   1.763   1.779   1.823
  1.849   1.918   1.955   1.985   2.012   2.081   2.100   2.129
  2.152   2.196   2.274   2.290   2.432   2.433   2.443   2.478
  2.579   2.674   2.771   2.957   3.071   3.232   3.360   3.459
  3.532   4.185   4.492   4.690   4.996   5.438
 --------------------------------------------------------------
 
          Ground-State Mulliken Net Atomic Charges

     Atom                 Charge (a.u.)    Spin (a.u.)
  --------------------------------------------------------
      1 C                     1.119711       0.000000
      2 F                     0.055840       0.000000
      3 F                    -0.165470       0.000000
      4 F                    -0.896430       0.000000
      5 F                    -0.113650       0.000000
  --------------------------------------------------------
  Sum of atomic charges =     0.000000
  Sum of spin   charges =     0.000000

 -----------------------------------------------------------------
                    Cartesian Multipole Moments
 -----------------------------------------------------------------
    Charge (ESU x 10^10)
                 0.0000
    Dipole Moment (Debye)
         X       6.0176      Y       9.0909      Z      -4.7253
       Tot      11.8821
    Quadrupole Moments (Debye-Ang)
        XX     -32.7340     XY       3.2234     YY      11.0366
        XZ       5.6298     YZ      -6.8841     ZZ     -25.0233
    Octopole Moments (Debye-Ang^2)
       XXX      67.3833    XXY     -59.5655    XYY      15.6026
       YYY     -51.2388    XXZ      -8.9443    XYZ       5.1782
       YYZ     -16.3586    XZZ      20.3049    YZZ     -53.7554
       ZZZ      -4.0118
    Hexadecapole Moments (Debye-Ang^3)
      XXXX    -199.6902   XXXY     105.5261   XXYY    -175.7845
      XYYY      81.7668   YYYY    -525.5188   XXXZ      28.1153
      XXYZ      -1.3108   XYYZ      11.4330   YYYZ     -31.1162
      XXZZ     -49.6310   XYZZ      32.5470   YYZZ    -157.5033
      XZZZ      18.4684   YZZZ      14.2501   ZZZZ     -95.5351
 -----------------------------------------------------------------
Archival summary:
1\1\tp-linux1\SP\HF\6-31G*\41\thomas\SatMar1811:19:452017SatMar1811:19:452017\0\\#,HF,6-31G*,\\0,1\C\F,1,1.10916\F,1,1.24029,2,125.292\F,1,1.3316,2,119.14,3,-151.566,0\F,4,2.40789,1,87.8905,2,85.1007,0\\HF=-435.320269\\@

 Total job time:  3.20s(wall), 15.26s(cpu) 
 Sat Mar 18 11:19:45 2017

        *************************************************************
        *                                                           *
        *  Thank you very much for using Q-Chem.  Have a nice day.  *
        *                                                           *
        *************************************************************


0 sent ACK to 0 
now end server 0 ... 
cleanup process ... done

Running Job 2 of 2 ddtraj3t27.inp
qchem ddtraj3t27.inp_8189.1 /scratch/qchem/qchem8189/ 1
/mnt/software/qchem/bin/mpi/mpirun_qchem -machinefile /mnt/software/qchem/bin/mpi/machines -np 1 /mnt/software/qchem/exe/qcprog.exe ddtraj3t27.inp_8189.1 /scratch/qchem/qchem8189/

Process 0 of 1 is on tp-linux1 - thread support 0
initial socket setup ...start
initial socket setup ...done 
now start server 0 ... 

cmd = ssh tp-linux1 /mnt/software/qchem/bin/get_hostid 590607059 > /scratch/qchem/qchem8189/lic.dat
                  Welcome to Q-Chem
     A Quantum Leap Into The Future Of Chemistry


 Q-Chem 4.3, Q-Chem, Inc., Pleasanton, CA (2015)

 Y. Shao,  Z. Gan,  E. Epifanovsky,  A. T. B. Gilbert,  M. Wormit,  
 J. Kussmann,  A. W. Lange,  A. Behn,  J. Deng,  X. Feng,  D. Ghosh,  
 M. Goldey,  P. R. Horn,  L. D. Jacobson,  I. Kaliman,  R. Z. Khaliullin,  
 T. Kus,  A. Landau,  J. Liu,  E. I. Proynov,  Y. M. Rhee,  R. M. Richard,  
 M. A. Rohrdanz,  R. P. Steele,  E. J. Sundstrom,  H. L. Woodcock III,  
 P. M. Zimmerman,  D. Zuev,  B. Albrecht,  E. Alguire,  B. Austin,  
 S. A. Baeppler,  G. J. O. Beran,  Y. A. Bernard,  E. Berquist,  
 K. Brandhorst,  K. B. Bravaya,  S. T. Brown,  D. Casanova,  C.-M. Chang,  
 Y. Chen,  S. H. Chien,  K. D. Closser,  D. L. Crittenden,  M. Diedenhofen,  
 R. A. DiStasio Jr.,  H. Do,  A. D. Dutoi,  R. G. Edgar,  P.-T. Fang,  
 S. Fatehi,  Q. Feng,  L. Fusti-Molnar,  A. Ghysels,  
 A. Golubeva-Zadorozhnaya,  J. Gomes,  A. Gunina,  M. W. D. Hanson-Heine,  
 P. H. P. Harbach,  A. W. Hauser,  E. G. Hohenstein,  Z. C. Holden,  K. Hui,  
 T.-C. Jagau,  H. Ji,  B. Kaduk,  K. Khistyaev,  Jaehoon Kim,  Jihan Kim,  
 R. A. King,  P. Klunzinger,  D. Kosenkov,  T. Kowalczyk,  C. M. Krauter,  
 K. U. Lao,  A. Laurent,  K. V. Lawler,  S. Lehtola,  S. V. Levchenko,  
 C. Y. Lin,  Y.-S. Lin,  F. Liu,  E. Livshits,  R. C. Lochan,  A. Luenser,  
 P. Manohar,  S. F. Manzer,  S.-P. Mao,  N. Mardirossian,  A. V. Marenich,  
 L. A. Martinez-Martinez,  S. A. Maurer,  N. J. Mayhall,  K. Nanda,  
 C. M. Oana,  R. Olivares-Amaya,  D. P. O'Neill,  J. A. Parkhill,  
 T. M. Perrine,  R. Peverati,  P. A. Pieniazek,  F. Plasser,  A. Prociuk,  
 D. R. Rehn,  E. Rosta,  N. J. Russ,  N. Sergueev,  S. M. Sharada,  
 S. Sharma,  D. W. Small,  A. Sodt,  T. Stauch,  T. Stein,  D. Stuck,  
 Y.-C. Su,  A. J. W. Thom,  T. Tsuchimochi,  L. Vogt,  O. Vydrov,  T. Wang,  
 M. A. Watson,  J. Wenzel,  A. White,  C. F. Williams,  V. Vanovschi,  
 S. Yeganeh,  S. R. Yost,  Z.-Q. You,  I. Y. Zhang,  X. Zhang,  Y. Zhao,  
 B. R. Brooks,  G. K. L. Chan,  D. M. Chipman,  C. J. Cramer,  
 W. A. Goddard III,  M. S. Gordon,  W. J. Hehre,  A. Klamt,  
 H. F. Schaefer III,  M. W. Schmidt,  C. D. Sherrill,  D. G. Truhlar,  
 A. Warshel,  X. Xu,  A. Aspuru-Guzik,  R. Baer,  A. T. Bell,  N. A. Besley,  
 J.-D. Chai,  A. Dreuw,  B. D. Dunietz,  T. R. Furlani,  S. R. Gwaltney,  
 C.-P. Hsu,  Y. Jung,  J. Kong,  D. S. Lambrecht,  W. Liang,  C. Ochsenfeld,  
 V. A. Rassolov,  L. V. Slipchenko,  J. E. Subotnik,  T. Van Voorhis,  
 J. M. Herbert,  A. I. Krylov,  P. M. W. Gill,  M. Head-Gordon

 Contributors to earlier versions of Q-Chem not listed above: 
 R. D. Adamson,  J. Baker,  E. F. C. Byrd,  A. K. Chakraborty,  C.-L. Cheng,  
 H. Dachsel,  R. J. Doerksen,  G. Hawkins,  A. Heyden,  S. Hirata,  
 G. Kedziora,  F. J. Keil,  C. Kelley,  P. P. Korambath,  W. Kurlancheek,  
 A. M. Lee,  M. S. Lee,  D. Liotard,  I. Lotan,  P. E. Maslen,  N. Nair,  
 D. Neuhauser,  R. Olson,  B. Peters,  J. Ritchie,  N. E. Schultz,  
 N. Shenvi,  A. C. Simmonett,  K. S. Thanthiriwatte,  Q. Wu,  W. Zhang

 Please cite Q-Chem as follows:
 Y. Shao et al., Mol. Phys. 113, 184-215 (2015)
 DOI: 10.1080/00268976.2014.952696

 Q-Chem 4.3.0 for Intel X86 Linux

 Parts of Q-Chem use Armadillo 5.200.1 (Boston Tea Smuggler).
 http://arma.sourceforge.net/

 Q-Chem begins on Sat Mar 18 11:19:47 2017  

Host: 
0

     Scratch files written to /scratch/qchem/qchem8189//
 Nov1815 1189b_ 19540  19532 5443   
 Parallel job on  1  processors
Processing $rem in /mnt/software/qchem/config/preferences.
 MEM_TOTAL  2000 

Checking the input file for inconsistencies... 	...done.

--------------------------------------------------------------
User input:
--------------------------------------------------------------

$comment
job3 - cvs-adc(2) calculation
$end

$molecule
read
$end

$rem
mem_total 3000
mem_static 1500
sym_ignore true
scf_guess read
method cvs-adc(2)
basis 6-31G*
ee_singlets 20
cc_rest_occ 5                  !only excitations from the lowest N orbitals
unrestricted  true
max_scf_cycles 200
$end
--------------------------------------------------------------
 ----------------------------------------------------------------
             Standard Nuclear Orientation (Angstroms)
    I     Atom           X                Y                Z
 ----------------------------------------------------------------
    1      C      -0.3447050000     2.9091020000    -0.2787400000
    2      F       0.7088610000     2.5975800000    -0.1264760000
    3      F      -1.1204340000     3.1137050000     0.7840560000
    4      F      -1.5852600000     0.7511110000     0.7885640000
    5      F      -1.0383820000     2.6306160000    -1.2684720000
 ----------------------------------------------------------------
 Nuclear Repulsion Energy =   188.7919924622 hartrees
 There are       21 alpha and       21 beta electrons
 Requested basis set is 6-31G(d)
 There are 20 shells and 75 basis functions

 Total QAlloc Memory Limit   3000 MB
 Mega-Array Size      1467 MB
 MEM_STATIC part      1500 MB

                       Distance Matrix (Angstroms)
             C (  1)   F (  2)   F (  3)   F (  4)
   F (  2)  1.109158
   F (  3)  1.331598  2.107552
   F (  4)  2.708328  3.083786  2.407890
   F (  5)  1.240287  2.087607  2.110208  2.839544
 
 tim1(1): 
  0.000000000000000E+000
 tim1(2): 
  0.000000000000000E+000
 A cutoff of  1.0D-11 yielded    199 shell pairs
 There are      2962 function pairs
 
 -------------------------------------------------------
 OpenMP Integral Computing Module                       
 Release: version 1.0, May 2013, Q-Chem Inc. Pittsburgh 
 -------------------------------------------------------
 Integral Job Info:
 Integral job number is                      11
 Integral operator is                         1
 short-range coefficients                     0
 long-range coefficients              100000000
 Omega coefficients                           0
 if combine SR and LR in K                    0
 Integral screening is                        0
 Integral computing path is                   2
 max size of driver memory is            800000
 size of driver memory is                593474
 size of scratch memory is              2260544
 max col of scratch BK array               1296
 max len of scratch array in speh3          155
 max len of scratch index in speh4           18
 max int batch size is                      520
 min int batch size is                       52
 fixed nKL is                                52
 max L of basis functions is                  2
 order of int derivative is                   0
 number of shells is                         20
 number of basis is                          75
 number of cartesian basis is                75
 number of contracted shell pairs           199
 number of primitive shell pairs           1006
 maxK2 (contraction) of shell pair           36
 max number of K2 of shell pair               1
 max number of CS2 of shell pair             32
 max number of PS2 of shell pair            192
 mem total for path MDJ                   21832
 -------------------------------------------------------
 Smallest overlap matrix eigenvalue = 3.01E-03

 Scale SEOQF with 1.000000e-01/1.000000e-01/1.000000e+00

 Standard Electronic Orientation quadrupole field applied
 Nucleus-field energy     =    -0.0000000073 hartrees
 Guess MOs from SCF MO coefficient file
 Reading MOs from coefficient file
 Reading MOs from coefficient file
 An unrestricted Hartree-Fock SCF calculation will be
 performed using Pulay DIIS extrapolation
 SCF converges when DIIS error is below 1.0E-08
 using 8 threads for integral computing 
 ---------------------------------------
  Cycle       Energy         DIIS Error
 ---------------------------------------
    1    -435.3202688313      2.33E-06
    2    -435.3202688427      1.43E-06
    3    -435.3202688465      7.32E-07
    4    -435.3202688513      2.45E-07
    5    -435.3202688519      1.19E-07
    6    -435.3202688520      4.86E-08
    7    -435.3202688521      1.79E-08
    8    -435.3202688521      4.93E-09 Convergence criterion met
 ---------------------------------------
 <S^2> = 0.0000
 SCF time:  CPU 7.49 s  wall 2.06 s
 SCF   energy in the final basis set = -435.3202688521
 Total energy in the final basis set = -435.3202688521
================================================================================
|                                                                              |
|                                 A D C  M A N                                 |
|                                                                              |
 ------------------------------------------------------------------------------ 
|                                                                              |
| Components:                                                                  |
|                                                                              |
| - libvmm - 1.2-release                                                       |
|   Authors:                                                                   |
|   Evgeny Epifanovsky, Ilya Kaliman                                           |
|                                                                              |
| - libtensor - 2.4-trunk                                                      |
|   Authors:                                                                   |
|   Evgeny Epifanovsky, Michael Wormit, Dmitry Zuev, Sam Manzer                |
|                                                                              |
| - libwfa - 1.1-beta                                                          |
|   Authors:                                                                   |
|   Felix Plasser, Stefanie Baeppler, Benjamin Thomitzni, Michael Wormit       |
|                                                                              |
| - libadc - 1.0-beta                                                          |
|   Authors:                                                                   |
|   Michael Wormit, Philipp H. P. Harbach, Caroline Krauter, Dirk Rehn,        |
|   Matthias Schneider, Jan Wenzel                                             |
|                                                                              |
| - adcman - 2.4-beta                                                          |
|   Authors:                                                                   |
|   Michael Wormit, Philipp H. P. Harbach, Caroline Krauter, Dirk Rehn,        |
|   Jan Wenzel, Andreas Dreuw                                                  |
|                                                                              |
| Authors of earlier versions of ADCMAN:                                       |
| Andreas Dreuw, Jan Hendrik Starcke, Dirk Rehn, Michael Wormit                |
|                                                                              |
================================================================================

 
 Alpha MOs, Unrestricted
 -- Occupied --                  
-26.617 -26.539 -26.481 -25.938 -11.754  -2.047  -1.881  -1.769
  1 A     2 A     3 A     4 A     5 A     6 A     7 A     8 A                  
 -1.199  -1.164  -1.067  -1.039  -1.024  -0.881  -0.865  -0.842
  9 A    10 A    11 A    12 A    13 A    14 A    15 A    16 A                  
 -0.786  -0.783  -0.308  -0.305  -0.305
 17 A    18 A    19 A    20 A    21 A                                          
 -- Virtual --                   
 -0.039   0.266   0.324   0.395   0.525   0.551   0.662   0.749
 22 A    23 A    24 A    25 A    26 A    27 A    28 A    29 A                  
  1.122   1.198   1.250   1.265   1.297   1.395   1.428   1.465
 30 A    31 A    32 A    33 A    34 A    35 A    36 A    37 A                  
  1.471   1.521   1.547   1.553   1.589   1.763   1.779   1.823
 38 A    39 A    40 A    41 A    42 A    43 A    44 A    45 A                  
  1.849   1.918   1.955   1.985   2.012   2.081   2.100   2.129
 46 A    47 A    48 A    49 A    50 A    51 A    52 A    53 A                  
  2.152   2.196   2.274   2.290   2.432   2.433   2.443   2.478
 54 A    55 A    56 A    57 A    58 A    59 A    60 A    61 A                  
  2.579   2.674   2.771   2.957   3.071   3.232   3.360   3.459
 62 A    63 A    64 A    65 A    66 A    67 A    68 A    69 A                  
  3.532   4.185   4.492   4.690   4.996   5.438
 70 A    71 A    72 A    73 A    74 A    75 A                                  
 
 Beta MOs, Unrestricted
 -- Occupied --                  
-26.617 -26.539 -26.481 -25.938 -11.754  -2.047  -1.881  -1.769
  1 A     2 A     3 A     4 A     5 A     6 A     7 A     8 A                  
 -1.199  -1.164  -1.067  -1.039  -1.024  -0.881  -0.865  -0.842
  9 A    10 A    11 A    12 A    13 A    14 A    15 A    16 A                  
 -0.786  -0.783  -0.308  -0.305  -0.305
 17 A    18 A    19 A    20 A    21 A                                          
 -- Virtual --                   
 -0.039   0.266   0.324   0.395   0.525   0.551   0.662   0.749
 22 A    23 A    24 A    25 A    26 A    27 A    28 A    29 A                  
  1.122   1.198   1.250   1.265   1.297   1.395   1.428   1.465
 30 A    31 A    32 A    33 A    34 A    35 A    36 A    37 A                  
  1.471   1.521   1.547   1.553   1.589   1.763   1.779   1.823
 38 A    39 A    40 A    41 A    42 A    43 A    44 A    45 A                  
  1.849   1.918   1.955   1.985   2.012   2.081   2.100   2.129
 46 A    47 A    48 A    49 A    50 A    51 A    52 A    53 A                  
  2.152   2.196   2.274   2.290   2.432   2.433   2.443   2.478
 54 A    55 A    56 A    57 A    58 A    59 A    60 A    61 A                  
  2.579   2.674   2.771   2.957   3.071   3.232   3.360   3.459
 62 A    63 A    64 A    65 A    66 A    67 A    68 A    69 A                  
  3.532   4.185   4.492   4.690   4.996   5.438
 70 A    71 A    72 A    73 A    74 A    75 A                                  
 

--------------------------------------------------------------------------------
                                   HF Summary                                   
--------------------------------------------------------------------------------
  Energy:                                                 -435.3202688521 a.u.
  Dip. moment [a.u.]:                  [ -57.897392,  184.057600,    1.720322]
  Total dipole [Debye]:                                             490.446969
  <r^2> [a.u.]:                        [ 198.801821,  942.123899,  112.239417]
  Total <r^2> [a.u.]:                                              1253.165137
--------------------------------------------------------------------------------

--------------------------------------------------------------------------------
                                 MP(2) Summary                                  
--------------------------------------------------------------------------------
  Energy contribution:                                      -0.8056106855 a.u.
  Total energy:                                           -436.1258795376 a.u.
  Dip. moment [a.u.]:                  [ -57.722939,  184.297033,    1.590980]
  Total dipole [Debye]:                                             490.891986
  <r^2> [a.u.]:                        [ 198.105760,  944.434062,  111.938263]
  Total <r^2> [a.u.]:                                              1254.478085
--------------------------------------------------------------------------------
  Starting Davidson ... 
--------------------------------------------------------------------------------
   It NVec Conv  Avg. Norm  Max. Norm  Conv. states           Remark
--------------------------------------------------------------------------------
        20    0  2.071e-01  1.064e+00 10.9675 n n n n n n n n Guess.
    1   40    0  3.836e-02  4.759e-01 10.8060 n n n n n n n n 
    2   60    0  2.974e-02  5.765e-01 10.8048 n n n n n n n n 
    3   80    0  1.171e-02  2.301e-01 10.8048 n n n n n n n n 
    4  100    0  1.163e-02  2.315e-01 10.8048 n n n n n n n n 
    5   40    0  8.845e-03  1.764e-01 10.8048 n n n n n n n n Subspace collapsed.
    6   60    0  8.434e-03  1.684e-01 10.8048 n n n n n n n n 
    7   80    0  7.297e-03  1.457e-01 10.8048 n n n n n n n n 
    8  100    2  6.844e-03  1.367e-01 10.8048 y y n n n n n n 
    9   40    5  6.746e-03  1.349e-01 10.8048 y y n y n y y n Subspace collapsed.
   10   60    6  6.418e-03  1.283e-01 10.8048 y y n y n y y n 
   11   80   11  6.105e-03  1.221e-01 10.8048 y y y y y y y y 
   12  100   14  5.520e-03  1.104e-01 10.8048 y y y y y y y y 
   13   40   14  5.434e-03  1.087e-01 10.8048 y y y y y y y y Subspace collapsed.
   14   60   15  5.144e-03  1.029e-01 10.8048 y y y y y y y y 
   15   80   15  5.066e-03  1.012e-01 10.8048 y y y y y y y y 
   16   99   15  3.555e-02  7.040e-01 10.8048 y y y y y y y y 
   17  100   15  3.545e-02  7.020e-01 10.8048 y y y y y y y y 
   18   38   15  3.409e-02  6.747e-01 10.8048 y y y y y y y y Subspace collapsed.
   19   55   15  3.068e-02  6.058e-01 10.8048 y y y y y y y y 
   20   57   15  3.079e-02  6.081e-01 10.8048 y y y y y y y y 
   21   59   15  3.052e-02  6.027e-01 10.8048 y y y y y y y y 
   22   60   15  3.050e-02  6.022e-01 10.8048 y y y y y y y y 
   23   61   15  3.021e-02  5.965e-01 10.8048 y y y y y y y y 
   24   61   15  3.021e-02  5.965e-01 10.8048 y y y y y y y y 
   25   81   16  2.897e-02  5.717e-01 10.8048 y y y y y y y y 
   26   94   16  3.673e-02  5.990e-01 10.8048 y y y y y y y y 
   27  100   16  3.377e-02  5.331e-01 10.8048 y y y y y y y y 
   28   32   17  3.174e-02  4.865e-01 10.8048 y y y y y y y y Subspace collapsed.
   29   36   17  3.126e-02  4.826e-01 10.8048 y y y y y y y y 
   30   40   17  3.072e-02  4.716e-01 10.8048 y y y y y y y y 
   31   41   17  3.067e-02  4.713e-01 10.8048 y y y y y y y y 
   32   42   17  3.071e-02  4.723e-01 10.8048 y y y y y y y y 
   33   52   16  3.928e-02  6.548e-01 10.8048 y y y y y y y y 
   34   60   16  3.487e-02  5.660e-01 10.8048 y y y y y y y y 
   35   68   16  3.000e-02  4.798e-01 10.8048 y y y y y y y y 
   36   75   16  2.720e-02  4.467e-01 10.8048 y y y y y y y y 
   37   75   16  2.720e-02  4.467e-01 10.8048 y y y y y y y y 
   38   75   16  2.720e-02  4.467e-01 10.8048 y y y y y y y y 
   39   95   16  2.065e-02  3.396e-01 10.8048 y y y y y y y y 
   40   95   16  2.065e-02  3.396e-01 10.8048 y y y y y y y y 
   41   95   16  2.065e-02  3.396e-01 10.8048 y y y y y y y y 
   42  100   16  1.978e-02  3.290e-01 10.8048 y y y y y y y y 
   43   23   16  1.975e-02  3.287e-01 10.8048 y y y y y y y y Subspace collapsed.
   44   25   16  1.975e-02  3.287e-01 10.8048 y y y y y y y y 
   45   32   16  1.922e-02  3.134e-01 10.8048 y y y y y y y y 
   46   32   16  1.922e-02  3.134e-01 10.8048 y y y y y y y y 
   47   37   16  1.908e-02  3.117e-01 10.8048 y y y y y y y y 
   48   43   16  1.691e-02  2.762e-01 10.8048 y y y y y y y y 
   49   49   16  1.619e-02  2.654e-01 10.8048 y y y y y y y y 
   50   55   16  1.360e-02  2.162e-01 10.8048 y y y y y y y y 
   51   61   16  1.082e-02  1.946e-01 10.8048 y y y y y y y y 
   52   67   16  9.250e-03  1.765e-01 10.8048 y y y y y y y y 
   53   67   16  9.250e-03  1.765e-01 10.8048 y y y y y y y y 
   54   67   16  9.250e-03  1.765e-01 10.8048 y y y y y y y y 
   55   87   16  6.279e-03  1.166e-01 10.8048 y y y y y y y y 
   56   87   16  6.279e-03  1.166e-01 10.8048 y y y y y y y y 
   57   89   16  6.224e-03  1.155e-01 10.8048 y y y y y y y y 
   58   91   16  6.129e-03  1.133e-01 10.8048 y y y y y y y y 
   59   93   16  6.131e-03  1.134e-01 10.8048 y y y y y y y y 
--------------------------------------------------------------------------------
  Davidson Summary: 
 ------------------------------------------------------------
  State  0: excitation energy =  10.8048 a.u.   (converged)
  State  1: excitation energy =  10.8724 a.u.   (converged)
  State  2: excitation energy =  11.1135 a.u.   (converged)
  State  3: excitation energy =  11.1689 a.u.   (converged)
  State  4: excitation energy =  11.1913 a.u.   (converged)
  State  5: excitation energy =  11.2372 a.u.   (converged)
  State  6: excitation energy =  11.3270 a.u.   (converged)
  State  7: excitation energy =  11.3839 a.u.   (converged)
  State  8: excitation energy =  11.4971 a.u.   (converged)
  State  9: excitation energy =  11.5381 a.u.   (converged)
  State 10: excitation energy =  11.5453 a.u.   (converged)
  State 11: excitation energy =  11.5542 a.u.   (converged)
  State 12: excitation energy =  11.5701 a.u.   (converged)
  State 13: excitation energy =  11.6090 a.u.   (converged)
  State 14: excitation energy =  11.6727 a.u.   (converged)
  State 15: excitation energy =  11.7009 a.u.   (converged)
  State 16: excitation energy =  11.9801 a.u.   (not converged)
  State 17: excitation energy =  11.9803 a.u.   (not converged)
  State 18: excitation energy =  11.9831 a.u.   (not converged)
  State 19: excitation energy =  11.9844 a.u.   (not converged)
 ------------------------------------------------------------


--------------------------------------------------------------------------------
                             Excited State Summary
--------------------------------------------------------------------------------

  Excited state  1 (A)                                             [converged]
  ----------------------------------------------------------------------------
  Term symbol:  2 (-) A                                     R^2 =  1.11171e-09

  Total energy:                                           -425.3211233590 a.u.
  Excitation energy:                                             294.012368 eV

  Osc. strength:                                                      0.000000
  Trans. dip. moment [a.u.]:           [   0.000000,   -0.000000,   -0.000000]
  <i|r^2|0> [a.u.]:                    [  -0.000000,   -0.000000,   -0.000000]

  V1^2 = 0.9558, V2^2 = 0.0442

  Important amplitudes:
     core i     occ j      vir a      vir b          v   
    ------------------------------------------------------
     5 (A) A              22 (A) A                -0.6415
     5 (A) B              22 (A) B                 0.6415
    ------------------------------------------------------
  ----------------------------------------------------------------------------


  Excited state  2 (A)                                             [converged]
  ----------------------------------------------------------------------------
  Term symbol:  3 (-) A                                     R^2 =  1.89711e-09

  Total energy:                                           -425.2535135385 a.u.
  Excitation energy:                                             295.852125 eV

  Osc. strength:                                                      0.096212
  Trans. dip. moment [a.u.]:           [   0.018916,    0.110479,   -0.026653]
  <i|r^2|0> [a.u.]:                    [  -0.020182,    1.224532,    0.033647]

  V1^2 = 0.9502, V2^2 = 0.0498

  Important amplitudes:
     core i     occ j      vir a      vir b          v   
    ------------------------------------------------------
     5 (A) B              22 (A) B                 0.6564
     5 (A) A              22 (A) A                 0.6564
    ------------------------------------------------------
  ----------------------------------------------------------------------------


  Excited state  3 (A)                                             [converged]
  ----------------------------------------------------------------------------
  Term symbol:  4 (-) A                                     R^2 =  3.85651e-10

  Total energy:                                           -425.0123350779 a.u.
  Excitation energy:                                             302.414925 eV

  Osc. strength:                                                      0.000000
  Trans. dip. moment [a.u.]:           [  -0.000000,    0.000000,   -0.000000]
  <i|r^2|0> [a.u.]:                    [   0.000000,    0.000000,    0.000000]

  V1^2 = 0.9440, V2^2 = 0.0560

  Important amplitudes:
     core i     occ j      vir a      vir b          v   
    ------------------------------------------------------
     5 (A) A              24 (A) A                 0.4391
     5 (A) B              24 (A) B                -0.4391
    ------------------------------------------------------
  ----------------------------------------------------------------------------


  Excited state  4 (A)                                             [converged]
  ----------------------------------------------------------------------------
  Term symbol:  5 (-) A                                     R^2 =  1.44488e-10

  Total energy:                                           -424.9569581026 a.u.
  Excitation energy:                                             303.921809 eV

  Osc. strength:                                                      0.000000
  Trans. dip. moment [a.u.]:           [  -0.000000,   -0.000000,    0.000000]
  <i|r^2|0> [a.u.]:                    [   0.000000,   -0.000000,   -0.000000]

  V1^2 = 0.9417, V2^2 = 0.0583

  Important amplitudes:
     core i     occ j      vir a      vir b          v   
    ------------------------------------------------------
     5 (A) B              23 (A) B                -0.4000
     5 (A) A              23 (A) A                 0.4000
    ------------------------------------------------------
  ----------------------------------------------------------------------------


  Excited state  5 (A)                                             [converged]
  ----------------------------------------------------------------------------
  Term symbol:  6 (-) A                                     R^2 =  2.29605e-10

  Total energy:                                           -424.9345528488 a.u.
  Excitation energy:                                             304.531487 eV

  Osc. strength:                                                      0.077564
  Trans. dip. moment [a.u.]:           [  -0.053190,   -0.006782,    0.086723]
  <i|r^2|0> [a.u.]:                    [   0.081200,   -0.054607,   -0.080401]

  V1^2 = 0.9332, V2^2 = 0.0668

  Important amplitudes:
     core i     occ j      vir a      vir b          v   
    ------------------------------------------------------
     5 (A) A              23 (A) A                 0.4649
     5 (A) B              23 (A) B                 0.4649
    ------------------------------------------------------
  ----------------------------------------------------------------------------


  Excited state  6 (A)                                             [converged]
  ----------------------------------------------------------------------------
  Term symbol:  7 (-) A                                     R^2 =  1.15676e-10

  Total energy:                                           -424.8887158142 a.u.
  Excitation energy:                                             305.778776 eV

  Osc. strength:                                                      0.071527
  Trans. dip. moment [a.u.]:           [  -0.013923,   -0.054550,   -0.079864]
  <i|r^2|0> [a.u.]:                    [   0.025736,   -0.583009,    0.093965]

  V1^2 = 0.9322, V2^2 = 0.0678

  Important amplitudes:
     core i     occ j      vir a      vir b          v   
    ------------------------------------------------------
     5 (A) A              23 (A) A                 0.4155
     5 (A) B              23 (A) B                 0.4155
    ------------------------------------------------------
  ----------------------------------------------------------------------------


  Excited state  7 (A)                                             [converged]
  ----------------------------------------------------------------------------
  Term symbol:  8 (-) A                                     R^2 =  9.21283e-11

  Total energy:                                           -424.7988502642 a.u.
  Excitation energy:                                             308.224142 eV

  Osc. strength:                                                      0.000000
  Trans. dip. moment [a.u.]:           [   0.000000,   -0.000000,    0.000000]
  <i|r^2|0> [a.u.]:                    [  -0.000000,   -0.000000,   -0.000000]

  V1^2 = 0.9381, V2^2 = 0.0619

  Important amplitudes:
     core i     occ j      vir a      vir b          v   
    ------------------------------------------------------
     5 (A) B              25 (A) B                -0.4230
     5 (A) A              25 (A) A                 0.4230
    ------------------------------------------------------
  ----------------------------------------------------------------------------


  Excited state  8 (A)                                             [converged]
  ----------------------------------------------------------------------------
  Term symbol:  9 (-) A                                     R^2 =  2.57104e-10

  Total energy:                                           -424.7419818340 a.u.
  Excitation energy:                                             309.771611 eV

  Osc. strength:                                                      0.078003
  Trans. dip. moment [a.u.]:           [  -0.090844,    0.025180,   -0.037303]
  <i|r^2|0> [a.u.]:                    [   0.129678,    0.278756,    0.037228]

  V1^2 = 0.9279, V2^2 = 0.0721

  Important amplitudes:
     core i     occ j      vir a      vir b          v   
    ------------------------------------------------------
     5 (A) B              25 (A) B                -0.5181
     5 (A) A              25 (A) A                -0.5181
    ------------------------------------------------------
  ----------------------------------------------------------------------------


  Excited state  9 (A)                                             [converged]
  ----------------------------------------------------------------------------
  Term symbol:  10 (-) A                                    R^2 =  1.16695e-09

  Total energy:                                           -424.6287449125 a.u.
  Excitation energy:                                             312.852944 eV

  Osc. strength:                                                      0.000000
  Trans. dip. moment [a.u.]:           [   0.000000,   -0.000000,   -0.000000]
  <i|r^2|0> [a.u.]:                    [  -0.000000,   -0.000000,    0.000000]

  V1^2 = 0.9198, V2^2 = 0.0802

  Important amplitudes:
     core i     occ j      vir a      vir b          v   
    ------------------------------------------------------
     5 (A) A              26 (A) A                -0.4394
     5 (A) B              26 (A) B                 0.4394
    ------------------------------------------------------
  ----------------------------------------------------------------------------


  Excited state 10 (A)                                             [converged]
  ----------------------------------------------------------------------------
  Term symbol:  11 (-) A                                    R^2 =  1.43558e-10

  Total energy:                                           -424.5877553979 a.u.
  Excitation energy:                                             313.968325 eV

  Osc. strength:                                                      0.000000
  Trans. dip. moment [a.u.]:           [   0.000000,   -0.000000,   -0.000000]
  <i|r^2|0> [a.u.]:                    [  -0.000000,   -0.000000,    0.000000]

  V1^2 = 0.8962, V2^2 = 0.1038

  Important amplitudes:
     core i     occ j      vir a      vir b          v   
    ------------------------------------------------------
     5 (A) A              26 (A) A                -0.4124
     5 (A) B              26 (A) B                 0.4124
    ------------------------------------------------------
  ----------------------------------------------------------------------------


  Excited state 11 (A)                                             [converged]
  ----------------------------------------------------------------------------
  Term symbol:  12 (-) A                                    R^2 =  1.77883e-09

  Total energy:                                           -424.5806043342 a.u.
  Excitation energy:                                             314.162916 eV

  Osc. strength:                                                      0.025824
  Trans. dip. moment [a.u.]:           [   0.008605,    0.056836,   -0.007117]
  <i|r^2|0> [a.u.]:                    [   0.002711,    0.641704,    0.024760]

  V1^2 = 0.9116, V2^2 = 0.0884

  Important amplitudes:
     core i     occ j      vir a      vir b          v   
    ------------------------------------------------------
     5 (A) A              26 (A) A                -0.5790
     5 (A) B              26 (A) B                -0.5790
    ------------------------------------------------------
  ----------------------------------------------------------------------------


  Excited state 12 (A)                                             [converged]
  ----------------------------------------------------------------------------
  Term symbol:  13 (-) A                                    R^2 =  2.37154e-10

  Total energy:                                           -424.5717069099 a.u.
  Excitation energy:                                             314.405027 eV

  Osc. strength:                                                      0.025846
  Trans. dip. moment [a.u.]:           [  -0.010766,    0.015747,    0.054695]
  <i|r^2|0> [a.u.]:                    [   0.009287,    0.164876,   -0.063977]

  V1^2 = 0.8993, V2^2 = 0.1007

  Important amplitudes:
     core i     occ j      vir a      vir b          v   
    ------------------------------------------------------
     5 (A) B              27 (A) B                -0.5031
     5 (A) A              27 (A) A                -0.5031
    ------------------------------------------------------
  ----------------------------------------------------------------------------


  Excited state 13 (A)                                             [converged]
  ----------------------------------------------------------------------------
  Term symbol:  14 (-) A                                    R^2 =  1.61875e-10

  Total energy:                                           -424.5558274642 a.u.
  Excitation energy:                                             314.837129 eV

  Osc. strength:                                                      0.000000
  Trans. dip. moment [a.u.]:           [   0.000000,   -0.000000,   -0.000000]
  <i|r^2|0> [a.u.]:                    [  -0.000000,   -0.000000,    0.000000]

  V1^2 = 0.9018, V2^2 = 0.0982

  Important amplitudes:
     core i     occ j      vir a      vir b          v   
    ------------------------------------------------------
     5 (A) B              25 (A) B                 0.4553
     5 (A) A              25 (A) A                -0.4553
    ------------------------------------------------------
  ----------------------------------------------------------------------------


  Excited state 14 (A)                                             [converged]
  ----------------------------------------------------------------------------
  Term symbol:  15 (-) A                                    R^2 =  2.13285e-10

  Total energy:                                           -424.5168401618 a.u.
  Excitation energy:                                             315.898027 eV

  Osc. strength:                                                      0.060990
  Trans. dip. moment [a.u.]:           [   0.086629,   -0.010640,    0.016205]
  <i|r^2|0> [a.u.]:                    [  -0.110000,   -0.104844,   -0.003894]

  V1^2 = 0.9141, V2^2 = 0.0859

  Important amplitudes:
     core i     occ j      vir a      vir b          v   
    ------------------------------------------------------
     5 (A) A              29 (A) A                 0.4938
     5 (A) B              29 (A) B                 0.4938
    ------------------------------------------------------
  ----------------------------------------------------------------------------


  Excited state 15 (A)                                             [converged]
  ----------------------------------------------------------------------------
  Term symbol:  16 (-) A                                    R^2 =  4.90398e-10

  Total energy:                                           -424.4531865016 a.u.
  Excitation energy:                                             317.630131 eV

  Osc. strength:                                                      0.000000
  Trans. dip. moment [a.u.]:           [   0.000000,   -0.000000,   -0.000000]
  <i|r^2|0> [a.u.]:                    [  -0.000000,   -0.000000,    0.000000]

  V1^2 = 0.8943, V2^2 = 0.1057

  Important amplitudes:
     core i     occ j      vir a      vir b          v   
    ------------------------------------------------------
     5 (A) A              28 (A) A                -0.5596
     5 (A) B              28 (A) B                 0.5596
    ------------------------------------------------------
  ----------------------------------------------------------------------------


  Excited state 16 (A)                                             [converged]
  ----------------------------------------------------------------------------
  Term symbol:  17 (-) A                                    R^2 =  1.42291e-10

  Total energy:                                           -424.4250284931 a.u.
  Excitation energy:                                             318.396350 eV

  Osc. strength:                                                      0.012501
  Trans. dip. moment [a.u.]:           [   0.005084,    0.036274,   -0.016154]
  <i|r^2|0> [a.u.]:                    [  -0.020184,    0.383381,   -0.001194]

  V1^2 = 0.8975, V2^2 = 0.1025

  Important amplitudes:
     core i     occ j      vir a      vir b          v   
    ------------------------------------------------------
     5 (A) B              28 (A) B                -0.5429
     5 (A) A              28 (A) A                -0.5429
    ------------------------------------------------------
  ----------------------------------------------------------------------------


  Excited state 17 (A)                                         [not converged]
  ----------------------------------------------------------------------------
  Term symbol:  18 (-) A                                    R^2 =  7.36181e-03

  Total energy:                                           -424.1457954443 a.u.
  Excitation energy:                                             325.994667 eV


  V1^2 = 0.0005, V2^2 = 0.9995

  Important amplitudes:
     core i     occ j      vir a      vir b          v   
    ------------------------------------------------------
     5 (A) A   20 (A) B   22 (A) A   22 (A) B     -0.5398
     5 (A) B   20 (A) A   22 (A) A   22 (A) B      0.4531
    ------------------------------------------------------
  ----------------------------------------------------------------------------


  Excited state 18 (A)                                         [not converged]
  ----------------------------------------------------------------------------
  Term symbol:  19 (-) A                                    R^2 =  2.89298e-02

  Total energy:                                           -424.1455502216 a.u.
  Excitation energy:                                             326.001340 eV


  V1^2 = 0.0005, V2^2 = 0.9995

  Important amplitudes:
     core i     occ j      vir a      vir b          v   
    ------------------------------------------------------
     5 (A) B   20 (A) A   22 (A) A   22 (A) B      0.5332
     5 (A) A   20 (A) B   22 (A) A   22 (A) B      0.4477
    ------------------------------------------------------
  ----------------------------------------------------------------------------


  Excited state 19 (A)                                         [not converged]
  ----------------------------------------------------------------------------
  Term symbol:  20 (-) A                                    R^2 =  3.58917e-02

  Total energy:                                           -424.1427965997 a.u.
  Excitation energy:                                             326.076270 eV


  V1^2 = 0.0002, V2^2 = 0.9998

  Important amplitudes:
     core i     occ j      vir a      vir b          v   
    ------------------------------------------------------
     5 (A) A   19 (A) B   22 (A) A   22 (A) B      0.6709
     5 (A) B   21 (A) A   22 (A) A   22 (A) B     -0.1812
    ------------------------------------------------------
  ----------------------------------------------------------------------------


  Excited state 20 (A)                                         [not converged]
  ----------------------------------------------------------------------------
  Term symbol:  21 (-) A                                    R^2 =  1.13375e-01

  Total energy:                                           -424.1415154134 a.u.
  Excitation energy:                                             326.111133 eV


  V1^2 = 0.0014, V2^2 = 0.9986

  Important amplitudes:
     core i     occ j      vir a      vir b          v   
    ------------------------------------------------------
     5 (A) B   21 (A) A   22 (A) A   22 (A) B     -0.4921
     5 (A) A   21 (A) B   22 (A) A   22 (A) B     -0.3764
    ------------------------------------------------------
  ----------------------------------------------------------------------------


--------------------------------------------------------------------------------
  Time of ADC calculation:  CPU 3550.37 s  wall 2166.98 s
================================================================================
 
 --------------------------------------------------------------
 
                    Orbital Energies (a.u.)
 --------------------------------------------------------------
 
 Alpha MOs
 -- Occupied --
-26.617 -26.539 -26.481 -25.938 -11.754  -2.047  -1.881  -1.769
 -1.199  -1.164  -1.067  -1.039  -1.024  -0.881  -0.865  -0.842
 -0.786  -0.783  -0.308  -0.305  -0.305
 -- Virtual --
 -0.039   0.266   0.324   0.395   0.525   0.551   0.662   0.749
  1.122   1.198   1.250   1.265   1.297   1.395   1.428   1.465
  1.471   1.521   1.547   1.553   1.589   1.763   1.779   1.823
  1.849   1.918   1.955   1.985   2.012   2.081   2.100   2.129
  2.152   2.196   2.274   2.290   2.432   2.433   2.443   2.478
  2.579   2.674   2.771   2.957   3.071   3.232   3.360   3.459
  3.532   4.185   4.492   4.690   4.996   5.438
 
 Beta MOs
 -- Occupied --
-26.617 -26.539 -26.481 -25.938 -11.754  -2.047  -1.881  -1.769
 -1.199  -1.164  -1.067  -1.039  -1.024  -0.881  -0.865  -0.842
 -0.786  -0.783  -0.308  -0.305  -0.305
 -- Virtual --
 -0.039   0.266   0.324   0.395   0.525   0.551   0.662   0.749
  1.122   1.198   1.250   1.265   1.297   1.395   1.428   1.465
  1.471   1.521   1.547   1.553   1.589   1.763   1.779   1.823
  1.849   1.918   1.955   1.985   2.012   2.081   2.100   2.129
  2.152   2.196   2.274   2.290   2.432   2.433   2.443   2.478
  2.579   2.674   2.771   2.957   3.071   3.232   3.360   3.459
  3.532   4.185   4.492   4.690   4.996   5.438
 --------------------------------------------------------------
 
          Ground-State Mulliken Net Atomic Charges

     Atom                 Charge (a.u.)    Spin (a.u.)
  --------------------------------------------------------
      1 C                     1.119674       0.000000
      2 F                     0.055849       0.000000
      3 F                    -0.165470       0.000000
      4 F                    -0.896396       0.000000
      5 F                    -0.113657       0.000000
  --------------------------------------------------------
  Sum of atomic charges =     0.000000
  Sum of spin   charges =     0.000000

 -----------------------------------------------------------------
                    Cartesian Multipole Moments
 -----------------------------------------------------------------
    Charge (ESU x 10^10)
                 0.0000
    Dipole Moment (Debye)
         X       6.0175      Y       9.0907      Z      -4.7251
       Tot      11.8819
    Quadrupole Moments (Debye-Ang)
        XX     -32.7337     XY       3.2235     YY      11.0363
        XZ       5.6295     YZ      -6.8839     ZZ     -25.0233
    Octopole Moments (Debye-Ang^2)
       XXX      67.3827    XXY     -59.5653    XYY      15.6031
       YYY     -51.2387    XXZ      -8.9439    XYZ       5.1779
       YYZ     -16.3583    XZZ      20.3047    YZZ     -53.7555
       ZZZ      -4.0117
    Hexadecapole Moments (Debye-Ang^3)
      XXXX    -199.6892   XXXY     105.5256   XXYY    -175.7847
      XYYY      81.7677   YYYY    -525.5140   XXXZ      28.1146
      XXYZ      -1.3104   XYYZ      11.4327   YYYZ     -31.1159
      XXZZ     -49.6306   XYZZ      32.5469   YYZZ    -157.5038
      XZZZ      18.4682   YZZZ      14.2504   ZZZZ     -95.5349
 -----------------------------------------------------------------
Archival summary:
1\1\tp-linux1\SP\HF\6-31G*\41\thomas\SatMar1811:55:582017SatMar1811:55:582017\0\\#,HF,6-31G*,\\0,1\C\F,1,1.10916\F,1,1.24029,2,125.292\F,1,1.3316,2,119.14,3,-151.566,0\F,4,2.40789,1,87.8905,2,85.1007,0\\HF=-435.320269\\@

 Total job time:  2171.09s(wall), 3561.42s(cpu) 
 Sat Mar 18 11:55:58 2017

        *************************************************************
        *                                                           *
        *  Thank you very much for using Q-Chem.  Have a nice day.  *
        *                                                           *
        *************************************************************


0 sent ACK to 0 
now end server 0 ... 
cleanup process ... done
