
Running Job 1 of 2 ddtraj3t22.inp
qchem ddtraj3t22.inp_5915.0 /scratch/qchem/qchem5915/ 1
/mnt/software/qchem/bin/mpi/mpirun_qchem -machinefile /mnt/software/qchem/bin/mpi/machines -np 1 /mnt/software/qchem/exe/qcprog.exe ddtraj3t22.inp_5915.0 /scratch/qchem/qchem5915/

Process 0 of 1 is on tp-linux1 - thread support 0
initial socket setup ...start
initial socket setup ...done 
now start server 0 ... 

cmd = ssh tp-linux1 /mnt/software/qchem/bin/get_hostid 614936603 > /scratch/qchem/qchem5915/lic.dat
                  Welcome to Q-Chem
     A Quantum Leap Into The Future Of Chemistry


 Q-Chem 4.3, Q-Chem, Inc., Pleasanton, CA (2015)

 Y. Shao,  Z. Gan,  E. Epifanovsky,  A. T. B. Gilbert,  M. Wormit,  
 J. Kussmann,  A. W. Lange,  A. Behn,  J. Deng,  X. Feng,  D. Ghosh,  
 M. Goldey,  P. R. Horn,  L. D. Jacobson,  I. Kaliman,  R. Z. Khaliullin,  
 T. Kus,  A. Landau,  J. Liu,  E. I. Proynov,  Y. M. Rhee,  R. M. Richard,  
 M. A. Rohrdanz,  R. P. Steele,  E. J. Sundstrom,  H. L. Woodcock III,  
 P. M. Zimmerman,  D. Zuev,  B. Albrecht,  E. Alguire,  B. Austin,  
 S. A. Baeppler,  G. J. O. Beran,  Y. A. Bernard,  E. Berquist,  
 K. Brandhorst,  K. B. Bravaya,  S. T. Brown,  D. Casanova,  C.-M. Chang,  
 Y. Chen,  S. H. Chien,  K. D. Closser,  D. L. Crittenden,  M. Diedenhofen,  
 R. A. DiStasio Jr.,  H. Do,  A. D. Dutoi,  R. G. Edgar,  P.-T. Fang,  
 S. Fatehi,  Q. Feng,  L. Fusti-Molnar,  A. Ghysels,  
 A. Golubeva-Zadorozhnaya,  J. Gomes,  A. Gunina,  M. W. D. Hanson-Heine,  
 P. H. P. Harbach,  A. W. Hauser,  E. G. Hohenstein,  Z. C. Holden,  K. Hui,  
 T.-C. Jagau,  H. Ji,  B. Kaduk,  K. Khistyaev,  Jaehoon Kim,  Jihan Kim,  
 R. A. King,  P. Klunzinger,  D. Kosenkov,  T. Kowalczyk,  C. M. Krauter,  
 K. U. Lao,  A. Laurent,  K. V. Lawler,  S. Lehtola,  S. V. Levchenko,  
 C. Y. Lin,  Y.-S. Lin,  F. Liu,  E. Livshits,  R. C. Lochan,  A. Luenser,  
 P. Manohar,  S. F. Manzer,  S.-P. Mao,  N. Mardirossian,  A. V. Marenich,  
 L. A. Martinez-Martinez,  S. A. Maurer,  N. J. Mayhall,  K. Nanda,  
 C. M. Oana,  R. Olivares-Amaya,  D. P. O'Neill,  J. A. Parkhill,  
 T. M. Perrine,  R. Peverati,  P. A. Pieniazek,  F. Plasser,  A. Prociuk,  
 D. R. Rehn,  E. Rosta,  N. J. Russ,  N. Sergueev,  S. M. Sharada,  
 S. Sharma,  D. W. Small,  A. Sodt,  T. Stauch,  T. Stein,  D. Stuck,  
 Y.-C. Su,  A. J. W. Thom,  T. Tsuchimochi,  L. Vogt,  O. Vydrov,  T. Wang,  
 M. A. Watson,  J. Wenzel,  A. White,  C. F. Williams,  V. Vanovschi,  
 S. Yeganeh,  S. R. Yost,  Z.-Q. You,  I. Y. Zhang,  X. Zhang,  Y. Zhao,  
 B. R. Brooks,  G. K. L. Chan,  D. M. Chipman,  C. J. Cramer,  
 W. A. Goddard III,  M. S. Gordon,  W. J. Hehre,  A. Klamt,  
 H. F. Schaefer III,  M. W. Schmidt,  C. D. Sherrill,  D. G. Truhlar,  
 A. Warshel,  X. Xu,  A. Aspuru-Guzik,  R. Baer,  A. T. Bell,  N. A. Besley,  
 J.-D. Chai,  A. Dreuw,  B. D. Dunietz,  T. R. Furlani,  S. R. Gwaltney,  
 C.-P. Hsu,  Y. Jung,  J. Kong,  D. S. Lambrecht,  W. Liang,  C. Ochsenfeld,  
 V. A. Rassolov,  L. V. Slipchenko,  J. E. Subotnik,  T. Van Voorhis,  
 J. M. Herbert,  A. I. Krylov,  P. M. W. Gill,  M. Head-Gordon

 Contributors to earlier versions of Q-Chem not listed above: 
 R. D. Adamson,  J. Baker,  E. F. C. Byrd,  A. K. Chakraborty,  C.-L. Cheng,  
 H. Dachsel,  R. J. Doerksen,  G. Hawkins,  A. Heyden,  S. Hirata,  
 G. Kedziora,  F. J. Keil,  C. Kelley,  P. P. Korambath,  W. Kurlancheek,  
 A. M. Lee,  M. S. Lee,  D. Liotard,  I. Lotan,  P. E. Maslen,  N. Nair,  
 D. Neuhauser,  R. Olson,  B. Peters,  J. Ritchie,  N. E. Schultz,  
 N. Shenvi,  A. C. Simmonett,  K. S. Thanthiriwatte,  Q. Wu,  W. Zhang

 Please cite Q-Chem as follows:
 Y. Shao et al., Mol. Phys. 113, 184-215 (2015)
 DOI: 10.1080/00268976.2014.952696

 Q-Chem 4.3.0 for Intel X86 Linux

 Parts of Q-Chem use Armadillo 5.200.1 (Boston Tea Smuggler).
 http://arma.sourceforge.net/

 Q-Chem begins on Sat Mar 18 09:23:28 2017  

Host: 
0

     Scratch files written to /scratch/qchem/qchem5915//
 Nov1815 1189b_ 19540  19532 5443   
 Parallel job on  1  processors
Processing $rem in /mnt/software/qchem/config/preferences.
 MEM_TOTAL  2000 

Checking the input file for inconsistencies... 	...done.

--------------------------------------------------------------
User input:
--------------------------------------------------------------
$comment
XAS calculation for the 2b valence excited for water using cvs-adc(2)-x + 6-311+G* basis set
job 1 - determination of HF orbitals
$end

$molecule
0 1
6  -0.438349  3.020429  -0.236251
9  0.727682  2.470743  -0.076063
9  -1.13593  3.099148  0.792734
9  -1.475677  0.886261  0.698739
9  -1.088151  2.557376  -1.262781
$end

$rem
jobtype      sp
sym_ignore true
exchange     hf
basis        6-31G*
unrestricted true
$end

--------------------------------------------------------------
 ----------------------------------------------------------------
             Standard Nuclear Orientation (Angstroms)
    I     Atom           X                Y                Z
 ----------------------------------------------------------------
    1      C      -0.4383490000     3.0204290000    -0.2362510000
    2      F       0.7276820000     2.4707430000    -0.0760630000
    3      F      -1.1359300000     3.0991480000     0.7927340000
    4      F      -1.4756770000     0.8862610000     0.6987390000
    5      F      -1.0881510000     2.5573760000    -1.2627810000
 ----------------------------------------------------------------
 Nuclear Repulsion Energy =   188.7245380560 hartrees
 There are       21 alpha and       21 beta electrons
 Requested basis set is 6-31G(d)
 There are 20 shells and 75 basis functions

 Total QAlloc Memory Limit   2000 MB
 Mega-Array Size        61 MB
 MEM_STATIC part        62 MB

                       Distance Matrix (Angstroms)
             C (  1)   F (  2)   F (  3)   F (  4)
   F (  2)  1.299016
   F (  3)  1.245643  2.150058
   F (  4)  2.550476  2.822356  2.240788
   F (  5)  1.300163  2.170957  2.126251  2.605832
 
 tim1(1): 
  0.000000000000000E+000
 tim1(2): 
  0.000000000000000E+000
 A cutoff of  1.0D-08 yielded    192 shell pairs
 There are      2930 function pairs
 
 -------------------------------------------------------
 OpenMP Integral Computing Module                       
 Release: version 1.0, May 2013, Q-Chem Inc. Pittsburgh 
 -------------------------------------------------------
 Integral Job Info:
 Integral job number is                      11
 Integral operator is                         1
 short-range coefficients                     0
 long-range coefficients              100000000
 Omega coefficients                           0
 if combine SR and LR in K                    0
 Integral screening is                        0
 Integral computing path is                   2
 max size of driver memory is            800000
 size of driver memory is                593474
 size of scratch memory is              2260544
 max col of scratch BK array               1296
 max len of scratch array in speh3          155
 max len of scratch index in speh4           18
 max int batch size is                      520
 min int batch size is                       52
 fixed nKL is                                52
 max L of basis functions is                  2
 order of int derivative is                   0
 number of shells is                         20
 number of basis is                          75
 number of cartesian basis is                75
 number of contracted shell pairs           192
 number of primitive shell pairs            928
 maxK2 (contraction) of shell pair           36
 max number of K2 of shell pair               1
 max number of CS2 of shell pair             29
 max number of PS2 of shell pair            180
 mem total for path MDJ                   20584
 -------------------------------------------------------
 Smallest overlap matrix eigenvalue = 2.24E-03

 Scale SEOQF with 1.000000e+00/1.000000e-01/1.000000e+00

 Standard Electronic Orientation quadrupole field applied
 Nucleus-field energy     =     0.0000000092 hartrees
 Guess from superposition of atomic densities
 Warning:  Energy on first SCF cycle will be non-variational
 An unrestricted Hartree-Fock SCF calculation will be
 performed using Pulay DIIS extrapolation
 SCF converges when DIIS error is below 1.0E-05
 using 8 threads for integral computing 
 ---------------------------------------
  Cycle       Energy         DIIS Error
 ---------------------------------------
    1    -435.9520765696      8.04E-02
    2    -435.0206762023      2.24E-02
    3    -433.9926514993      4.06E-02
    4    -435.2423909292      1.18E-02
    5    -435.2857841633      7.05E-03
    6    -435.3144236594      2.22E-03
    7    -435.3187575596      4.54E-04
    8    -435.3196377069      3.92E-04
    9    -435.3200588451      2.98E-04
   10    -435.3203701504      8.80E-05
   11    -435.3204274393      7.94E-05
   12    -435.3204468225      6.87E-05
   13    -435.3204625233      2.60E-05
   14    -435.3204734917      1.61E-05
   15    -435.3204744122      3.54E-06 Convergence criterion met
 ---------------------------------------
 <S^2> = 0.0000
 SCF time:  CPU 16.14 s  wall 3.75 s
 SCF   energy in the final basis set = -435.3204744122
 Total energy in the final basis set = -435.3204744122
 
 --------------------------------------------------------------
 
                    Orbital Energies (a.u.)
 --------------------------------------------------------------
 
 Alpha MOs
 -- Occupied --
-26.526 -26.508 -26.501 -26.015 -11.720  -1.896  -1.803  -1.783
 -1.265  -1.088  -0.980  -0.976  -0.921  -0.828  -0.824  -0.800
 -0.792  -0.785  -0.375  -0.375  -0.337
 -- Virtual --
 -0.106   0.312   0.318   0.358   0.551   0.581   0.605   0.721
  1.212   1.223   1.231   1.260   1.281   1.386   1.490   1.508
  1.521   1.527   1.531   1.536   1.644   1.718   1.790   1.819
  1.869   1.936   1.966   1.976   2.005   2.035   2.039   2.117
  2.171   2.192   2.263   2.273   2.375   2.380   2.386   2.527
  2.646   2.679   2.741   2.835   3.008   3.047   3.309   3.318
  3.468   4.178   4.481   4.551   4.727   5.877
 
 Beta MOs
 -- Occupied --
-26.526 -26.508 -26.501 -26.015 -11.720  -1.896  -1.803  -1.783
 -1.265  -1.088  -0.980  -0.976  -0.921  -0.828  -0.824  -0.800
 -0.792  -0.785  -0.375  -0.375  -0.337
 -- Virtual --
 -0.106   0.312   0.318   0.358   0.551   0.581   0.605   0.721
  1.212   1.223   1.231   1.260   1.281   1.386   1.490   1.508
  1.521   1.527   1.531   1.536   1.644   1.718   1.790   1.819
  1.869   1.936   1.966   1.976   2.005   2.035   2.039   2.117
  2.171   2.192   2.263   2.273   2.375   2.380   2.386   2.527
  2.646   2.679   2.741   2.835   3.008   3.047   3.309   3.318
  3.468   4.178   4.481   4.551   4.727   5.877
 --------------------------------------------------------------
 
          Ground-State Mulliken Net Atomic Charges

     Atom                 Charge (a.u.)    Spin (a.u.)
  --------------------------------------------------------
      1 C                     1.198975       0.000000
      2 F                    -0.184535       0.000000
      3 F                    -0.063955       0.000000
      4 F                    -0.778962       0.000000
      5 F                    -0.171524       0.000000
  --------------------------------------------------------
  Sum of atomic charges =     0.000000
  Sum of spin   charges =     0.000000

 -----------------------------------------------------------------
                    Cartesian Multipole Moments
 -----------------------------------------------------------------
    Charge (ESU x 10^10)
                 0.0000
    Dipole Moment (Debye)
         X       3.5611      Y       8.0163      Z      -3.1232
       Tot       9.3111
    Quadrupole Moments (Debye-Ang)
        XX     -30.1551     XY      -0.5410     YY       9.5389
        XZ       3.7248     YZ      -4.3050     ZZ     -24.6150
    Octopole Moments (Debye-Ang^2)
       XXX      60.5937    XXY     -59.0694    XYY       4.6676
       YYY     -51.3962    XXZ      -5.3124    XYZ       3.2522
       YYZ      -9.5122    XZZ      18.5200    YZZ     -54.9815
       ZZZ      -1.5207
    Hexadecapole Moments (Debye-Ang^3)
      XXXX    -184.9811   XXXY     106.7054   XXYY    -173.8318
      XYYY      53.6110   YYYY    -505.9409   XXXZ      17.2472
      XXYZ       0.8129   XYYZ       5.8554   YYYZ     -15.6424
      XXZZ     -45.7024   XYZZ      33.9246   YYZZ    -159.4406
      XZZZ      11.0204   YZZZ      13.7346   ZZZZ     -90.1273
 -----------------------------------------------------------------
Archival summary:
1\1\tp-linux1\SP\HF\6-31G*\41\thomas\SatMar1809:23:322017SatMar1809:23:322017\0\\#,HF,6-31G*,\\0,1\F\C,1,1.24564\F,2,1.29902,1,115.313\F,2,1.30016,1,113.255,3,-132.78,0\F,1,2.24079,2,89.3038,3,72.5261,0\\HF=-435.320474\\@

 Total job time:  4.06s(wall), 17.84s(cpu) 
 Sat Mar 18 09:23:32 2017

        *************************************************************
        *                                                           *
        *  Thank you very much for using Q-Chem.  Have a nice day.  *
        *                                                           *
        *************************************************************


0 sent ACK to 0 
now end server 0 ... 
cleanup process ... done

Running Job 2 of 2 ddtraj3t22.inp
qchem ddtraj3t22.inp_5915.1 /scratch/qchem/qchem5915/ 1
/mnt/software/qchem/bin/mpi/mpirun_qchem -machinefile /mnt/software/qchem/bin/mpi/machines -np 1 /mnt/software/qchem/exe/qcprog.exe ddtraj3t22.inp_5915.1 /scratch/qchem/qchem5915/

Process 0 of 1 is on tp-linux1 - thread support 0
initial socket setup ...start
initial socket setup ...done 
now start server 0 ... 

cmd = ssh tp-linux1 /mnt/software/qchem/bin/get_hostid 630584792 > /scratch/qchem/qchem5915/lic.dat
                  Welcome to Q-Chem
     A Quantum Leap Into The Future Of Chemistry


 Q-Chem 4.3, Q-Chem, Inc., Pleasanton, CA (2015)

 Y. Shao,  Z. Gan,  E. Epifanovsky,  A. T. B. Gilbert,  M. Wormit,  
 J. Kussmann,  A. W. Lange,  A. Behn,  J. Deng,  X. Feng,  D. Ghosh,  
 M. Goldey,  P. R. Horn,  L. D. Jacobson,  I. Kaliman,  R. Z. Khaliullin,  
 T. Kus,  A. Landau,  J. Liu,  E. I. Proynov,  Y. M. Rhee,  R. M. Richard,  
 M. A. Rohrdanz,  R. P. Steele,  E. J. Sundstrom,  H. L. Woodcock III,  
 P. M. Zimmerman,  D. Zuev,  B. Albrecht,  E. Alguire,  B. Austin,  
 S. A. Baeppler,  G. J. O. Beran,  Y. A. Bernard,  E. Berquist,  
 K. Brandhorst,  K. B. Bravaya,  S. T. Brown,  D. Casanova,  C.-M. Chang,  
 Y. Chen,  S. H. Chien,  K. D. Closser,  D. L. Crittenden,  M. Diedenhofen,  
 R. A. DiStasio Jr.,  H. Do,  A. D. Dutoi,  R. G. Edgar,  P.-T. Fang,  
 S. Fatehi,  Q. Feng,  L. Fusti-Molnar,  A. Ghysels,  
 A. Golubeva-Zadorozhnaya,  J. Gomes,  A. Gunina,  M. W. D. Hanson-Heine,  
 P. H. P. Harbach,  A. W. Hauser,  E. G. Hohenstein,  Z. C. Holden,  K. Hui,  
 T.-C. Jagau,  H. Ji,  B. Kaduk,  K. Khistyaev,  Jaehoon Kim,  Jihan Kim,  
 R. A. King,  P. Klunzinger,  D. Kosenkov,  T. Kowalczyk,  C. M. Krauter,  
 K. U. Lao,  A. Laurent,  K. V. Lawler,  S. Lehtola,  S. V. Levchenko,  
 C. Y. Lin,  Y.-S. Lin,  F. Liu,  E. Livshits,  R. C. Lochan,  A. Luenser,  
 P. Manohar,  S. F. Manzer,  S.-P. Mao,  N. Mardirossian,  A. V. Marenich,  
 L. A. Martinez-Martinez,  S. A. Maurer,  N. J. Mayhall,  K. Nanda,  
 C. M. Oana,  R. Olivares-Amaya,  D. P. O'Neill,  J. A. Parkhill,  
 T. M. Perrine,  R. Peverati,  P. A. Pieniazek,  F. Plasser,  A. Prociuk,  
 D. R. Rehn,  E. Rosta,  N. J. Russ,  N. Sergueev,  S. M. Sharada,  
 S. Sharma,  D. W. Small,  A. Sodt,  T. Stauch,  T. Stein,  D. Stuck,  
 Y.-C. Su,  A. J. W. Thom,  T. Tsuchimochi,  L. Vogt,  O. Vydrov,  T. Wang,  
 M. A. Watson,  J. Wenzel,  A. White,  C. F. Williams,  V. Vanovschi,  
 S. Yeganeh,  S. R. Yost,  Z.-Q. You,  I. Y. Zhang,  X. Zhang,  Y. Zhao,  
 B. R. Brooks,  G. K. L. Chan,  D. M. Chipman,  C. J. Cramer,  
 W. A. Goddard III,  M. S. Gordon,  W. J. Hehre,  A. Klamt,  
 H. F. Schaefer III,  M. W. Schmidt,  C. D. Sherrill,  D. G. Truhlar,  
 A. Warshel,  X. Xu,  A. Aspuru-Guzik,  R. Baer,  A. T. Bell,  N. A. Besley,  
 J.-D. Chai,  A. Dreuw,  B. D. Dunietz,  T. R. Furlani,  S. R. Gwaltney,  
 C.-P. Hsu,  Y. Jung,  J. Kong,  D. S. Lambrecht,  W. Liang,  C. Ochsenfeld,  
 V. A. Rassolov,  L. V. Slipchenko,  J. E. Subotnik,  T. Van Voorhis,  
 J. M. Herbert,  A. I. Krylov,  P. M. W. Gill,  M. Head-Gordon

 Contributors to earlier versions of Q-Chem not listed above: 
 R. D. Adamson,  J. Baker,  E. F. C. Byrd,  A. K. Chakraborty,  C.-L. Cheng,  
 H. Dachsel,  R. J. Doerksen,  G. Hawkins,  A. Heyden,  S. Hirata,  
 G. Kedziora,  F. J. Keil,  C. Kelley,  P. P. Korambath,  W. Kurlancheek,  
 A. M. Lee,  M. S. Lee,  D. Liotard,  I. Lotan,  P. E. Maslen,  N. Nair,  
 D. Neuhauser,  R. Olson,  B. Peters,  J. Ritchie,  N. E. Schultz,  
 N. Shenvi,  A. C. Simmonett,  K. S. Thanthiriwatte,  Q. Wu,  W. Zhang

 Please cite Q-Chem as follows:
 Y. Shao et al., Mol. Phys. 113, 184-215 (2015)
 DOI: 10.1080/00268976.2014.952696

 Q-Chem 4.3.0 for Intel X86 Linux

 Parts of Q-Chem use Armadillo 5.200.1 (Boston Tea Smuggler).
 http://arma.sourceforge.net/

 Q-Chem begins on Sat Mar 18 09:23:35 2017  

Host: 
0

     Scratch files written to /scratch/qchem/qchem5915//
 Nov1815 1189b_ 19540  19532 5443   
 Parallel job on  1  processors
Processing $rem in /mnt/software/qchem/config/preferences.
 MEM_TOTAL  2000 

Checking the input file for inconsistencies... 	...done.

--------------------------------------------------------------
User input:
--------------------------------------------------------------

$comment
job3 - cvs-adc(2) calculation
$end

$molecule
read
$end

$rem
mem_total 3000
mem_static 1500
sym_ignore true
scf_guess read
method cvs-adc(2)
basis 6-31G*
ee_singlets 20
cc_rest_occ 5                  !only excitations from the lowest N orbitals
unrestricted  true
max_scf_cycles 200
$end
--------------------------------------------------------------
 ----------------------------------------------------------------
             Standard Nuclear Orientation (Angstroms)
    I     Atom           X                Y                Z
 ----------------------------------------------------------------
    1      C      -0.4383490000     3.0204290000    -0.2362510000
    2      F       0.7276820000     2.4707430000    -0.0760630000
    3      F      -1.1359300000     3.0991480000     0.7927340000
    4      F      -1.4756770000     0.8862610000     0.6987390000
    5      F      -1.0881510000     2.5573760000    -1.2627810000
 ----------------------------------------------------------------
 Nuclear Repulsion Energy =   188.7245380560 hartrees
 There are       21 alpha and       21 beta electrons
 Requested basis set is 6-31G(d)
 There are 20 shells and 75 basis functions

 Total QAlloc Memory Limit   3000 MB
 Mega-Array Size      1467 MB
 MEM_STATIC part      1500 MB

                       Distance Matrix (Angstroms)
             C (  1)   F (  2)   F (  3)   F (  4)
   F (  2)  1.299016
   F (  3)  1.245643  2.150058
   F (  4)  2.550476  2.822356  2.240788
   F (  5)  1.300163  2.170957  2.126251  2.605832
 
 tim1(1): 
  3.999999999999997E-003
 tim1(2): 
  0.000000000000000E+000
 A cutoff of  1.0D-11 yielded    199 shell pairs
 There are      2962 function pairs
 
 -------------------------------------------------------
 OpenMP Integral Computing Module                       
 Release: version 1.0, May 2013, Q-Chem Inc. Pittsburgh 
 -------------------------------------------------------
 Integral Job Info:
 Integral job number is                      11
 Integral operator is                         1
 short-range coefficients                     0
 long-range coefficients              100000000
 Omega coefficients                           0
 if combine SR and LR in K                    0
 Integral screening is                        0
 Integral computing path is                   2
 max size of driver memory is            800000
 size of driver memory is                593474
 size of scratch memory is              2260544
 max col of scratch BK array               1296
 max len of scratch array in speh3          155
 max len of scratch index in speh4           18
 max int batch size is                      520
 min int batch size is                       52
 fixed nKL is                                52
 max L of basis functions is                  2
 order of int derivative is                   0
 number of shells is                         20
 number of basis is                          75
 number of cartesian basis is                75
 number of contracted shell pairs           199
 number of primitive shell pairs           1019
 maxK2 (contraction) of shell pair           36
 max number of K2 of shell pair               1
 max number of CS2 of shell pair             34
 max number of PS2 of shell pair            204
 mem total for path MDJ                   21832
 -------------------------------------------------------
 Smallest overlap matrix eigenvalue = 2.24E-03

 Scale SEOQF with 1.000000e+00/1.000000e-01/1.000000e+00

 Standard Electronic Orientation quadrupole field applied
 Nucleus-field energy     =     0.0000000092 hartrees
 Guess MOs from SCF MO coefficient file
 Reading MOs from coefficient file
 Reading MOs from coefficient file
 An unrestricted Hartree-Fock SCF calculation will be
 performed using Pulay DIIS extrapolation
 SCF converges when DIIS error is below 1.0E-08
 using 8 threads for integral computing 
 ---------------------------------------
  Cycle       Energy         DIIS Error
 ---------------------------------------
    1    -435.3204745160      1.62E-06
    2    -435.3204745210      1.65E-06
    3    -435.3204745236      6.48E-07
    4    -435.3204745278      4.68E-07
    5    -435.3204745315      2.77E-07
    6    -435.3204745325      1.44E-07
    7    -435.3204745328      7.00E-08
    8    -435.3204745329      3.23E-08
    9    -435.3204745329      1.81E-08
   10    -435.3204745329      1.01E-08
   11    -435.3204745329      3.92E-09 Convergence criterion met
 ---------------------------------------
 <S^2> = 0.0000
 SCF time:  CPU 11.91 s  wall 2.86 s
 SCF   energy in the final basis set = -435.3204745329
 Total energy in the final basis set = -435.3204745329
================================================================================
|                                                                              |
|                                 A D C  M A N                                 |
|                                                                              |
 ------------------------------------------------------------------------------ 
|                                                                              |
| Components:                                                                  |
|                                                                              |
| - libvmm - 1.2-release                                                       |
|   Authors:                                                                   |
|   Evgeny Epifanovsky, Ilya Kaliman                                           |
|                                                                              |
| - libtensor - 2.4-trunk                                                      |
|   Authors:                                                                   |
|   Evgeny Epifanovsky, Michael Wormit, Dmitry Zuev, Sam Manzer                |
|                                                                              |
| - libwfa - 1.1-beta                                                          |
|   Authors:                                                                   |
|   Felix Plasser, Stefanie Baeppler, Benjamin Thomitzni, Michael Wormit       |
|                                                                              |
| - libadc - 1.0-beta                                                          |
|   Authors:                                                                   |
|   Michael Wormit, Philipp H. P. Harbach, Caroline Krauter, Dirk Rehn,        |
|   Matthias Schneider, Jan Wenzel                                             |
|                                                                              |
| - adcman - 2.4-beta                                                          |
|   Authors:                                                                   |
|   Michael Wormit, Philipp H. P. Harbach, Caroline Krauter, Dirk Rehn,        |
|   Jan Wenzel, Andreas Dreuw                                                  |
|                                                                              |
| Authors of earlier versions of ADCMAN:                                       |
| Andreas Dreuw, Jan Hendrik Starcke, Dirk Rehn, Michael Wormit                |
|                                                                              |
================================================================================

 
 Alpha MOs, Unrestricted
 -- Occupied --                  
-26.526 -26.508 -26.501 -26.015 -11.720  -1.896  -1.803  -1.783
  1 A     2 A     3 A     4 A     5 A     6 A     7 A     8 A                  
 -1.265  -1.088  -0.980  -0.976  -0.921  -0.829  -0.824  -0.800
  9 A    10 A    11 A    12 A    13 A    14 A    15 A    16 A                  
 -0.792  -0.785  -0.375  -0.375  -0.337
 17 A    18 A    19 A    20 A    21 A                                          
 -- Virtual --                   
 -0.106   0.312   0.318   0.358   0.551   0.581   0.605   0.721
 22 A    23 A    24 A    25 A    26 A    27 A    28 A    29 A                  
  1.212   1.223   1.231   1.260   1.281   1.386   1.490   1.508
 30 A    31 A    32 A    33 A    34 A    35 A    36 A    37 A                  
  1.521   1.527   1.531   1.536   1.644   1.718   1.790   1.819
 38 A    39 A    40 A    41 A    42 A    43 A    44 A    45 A                  
  1.869   1.936   1.966   1.976   2.005   2.035   2.039   2.117
 46 A    47 A    48 A    49 A    50 A    51 A    52 A    53 A                  
  2.171   2.192   2.263   2.273   2.375   2.380   2.386   2.527
 54 A    55 A    56 A    57 A    58 A    59 A    60 A    61 A                  
  2.646   2.679   2.741   2.835   3.008   3.047   3.309   3.318
 62 A    63 A    64 A    65 A    66 A    67 A    68 A    69 A                  
  3.468   4.178   4.481   4.551   4.727   5.877
 70 A    71 A    72 A    73 A    74 A    75 A                                  
 
 Beta MOs, Unrestricted
 -- Occupied --                  
-26.526 -26.508 -26.501 -26.015 -11.720  -1.896  -1.803  -1.783
  1 A     2 A     3 A     4 A     5 A     6 A     7 A     8 A                  
 -1.265  -1.088  -0.980  -0.976  -0.921  -0.829  -0.824  -0.800
  9 A    10 A    11 A    12 A    13 A    14 A    15 A    16 A                  
 -0.792  -0.785  -0.375  -0.375  -0.337
 17 A    18 A    19 A    20 A    21 A                                          
 -- Virtual --                   
 -0.106   0.312   0.318   0.358   0.551   0.581   0.605   0.721
 22 A    23 A    24 A    25 A    26 A    27 A    28 A    29 A                  
  1.212   1.223   1.231   1.260   1.281   1.386   1.490   1.508
 30 A    31 A    32 A    33 A    34 A    35 A    36 A    37 A                  
  1.521   1.527   1.531   1.536   1.644   1.718   1.790   1.819
 38 A    39 A    40 A    41 A    42 A    43 A    44 A    45 A                  
  1.869   1.936   1.966   1.976   2.005   2.035   2.039   2.117
 46 A    47 A    48 A    49 A    50 A    51 A    52 A    53 A                  
  2.171   2.192   2.263   2.273   2.375   2.380   2.386   2.527
 54 A    55 A    56 A    57 A    58 A    59 A    60 A    61 A                  
  2.646   2.679   2.741   2.835   3.008   3.047   3.309   3.318
 62 A    63 A    64 A    65 A    66 A    67 A    68 A    69 A                  
  3.468   4.178   4.481   4.551   4.727   5.877
 70 A    71 A    72 A    73 A    74 A    75 A                                  
 

--------------------------------------------------------------------------------
                                   HF Summary                                   
--------------------------------------------------------------------------------
  Energy:                                                 -435.3204745329 a.u.
  Dip. moment [a.u.]:                  [ -56.918990,  184.390463,    1.146018]
  Total dipole [Debye]:                                             490.504003
  <r^2> [a.u.]:                        [ 193.069934,  928.711230,  106.821938]
  Total <r^2> [a.u.]:                                              1228.603101
--------------------------------------------------------------------------------

--------------------------------------------------------------------------------
                                 MP(2) Summary                                  
--------------------------------------------------------------------------------
  Energy contribution:                                      -0.8565890838 a.u.
  Total energy:                                           -436.1770636167 a.u.
  Dip. moment [a.u.]:                  [ -56.046612,  186.322109,    0.344143]
  Total dipole [Debye]:                                             494.546296
  <r^2> [a.u.]:                        [ 190.207104,  944.923274,  106.350599]
  Total <r^2> [a.u.]:                                              1241.480977
--------------------------------------------------------------------------------
  Starting Davidson ... 
--------------------------------------------------------------------------------
   It NVec Conv  Avg. Norm  Max. Norm  Conv. states           Remark
--------------------------------------------------------------------------------
        20    0  2.049e-01  1.050e+00 10.9550 n n n n n n n n Guess.
    1   40    0  9.313e-02  1.121e+00 10.7750 n n n n n n n n 
    2   60    0  2.030e-02  2.686e-01 10.7734 n n n n n n n n 
    3   80    0  2.768e-02  5.445e-01 10.7734 n n n n n n n n 
    4  100    0  5.422e-03  8.461e-02 10.7734 n n n n n n n n 
  Excited states of irrep A ... FAILED!
  [ERROR] libvmm::out_of_memory

 Q-Chem fatal error occurred in module /home/scratch/svnadmin/1189b_zgan/qchem/adcman/adcman_main.C, line 30:

 libvmm::out_of_memory

p0_6089:  p4_error: interrupt SIGx: 6
