
Running Job 1 of 2 ddtraj4t30.inp
qchem ddtraj4t30.inp_8988.0 /scratch/qchem/qchem8988/ 1
/mnt/software/qchem/bin/mpi/mpirun_qchem -machinefile /mnt/software/qchem/bin/mpi/machines -np 1 /mnt/software/qchem/exe/qcprog.exe ddtraj4t30.inp_8988.0 /scratch/qchem/qchem8988/

Process 0 of 1 is on tp-linux1 - thread support 0
initial socket setup ...start
initial socket setup ...done 
now start server 0 ... 

cmd = ssh tp-linux1 /mnt/software/qchem/bin/get_hostid 133599634 > /scratch/qchem/qchem8988/lic.dat
                  Welcome to Q-Chem
     A Quantum Leap Into The Future Of Chemistry


 Q-Chem 4.3, Q-Chem, Inc., Pleasanton, CA (2015)

 Y. Shao,  Z. Gan,  E. Epifanovsky,  A. T. B. Gilbert,  M. Wormit,  
 J. Kussmann,  A. W. Lange,  A. Behn,  J. Deng,  X. Feng,  D. Ghosh,  
 M. Goldey,  P. R. Horn,  L. D. Jacobson,  I. Kaliman,  R. Z. Khaliullin,  
 T. Kus,  A. Landau,  J. Liu,  E. I. Proynov,  Y. M. Rhee,  R. M. Richard,  
 M. A. Rohrdanz,  R. P. Steele,  E. J. Sundstrom,  H. L. Woodcock III,  
 P. M. Zimmerman,  D. Zuev,  B. Albrecht,  E. Alguire,  B. Austin,  
 S. A. Baeppler,  G. J. O. Beran,  Y. A. Bernard,  E. Berquist,  
 K. Brandhorst,  K. B. Bravaya,  S. T. Brown,  D. Casanova,  C.-M. Chang,  
 Y. Chen,  S. H. Chien,  K. D. Closser,  D. L. Crittenden,  M. Diedenhofen,  
 R. A. DiStasio Jr.,  H. Do,  A. D. Dutoi,  R. G. Edgar,  P.-T. Fang,  
 S. Fatehi,  Q. Feng,  L. Fusti-Molnar,  A. Ghysels,  
 A. Golubeva-Zadorozhnaya,  J. Gomes,  A. Gunina,  M. W. D. Hanson-Heine,  
 P. H. P. Harbach,  A. W. Hauser,  E. G. Hohenstein,  Z. C. Holden,  K. Hui,  
 T.-C. Jagau,  H. Ji,  B. Kaduk,  K. Khistyaev,  Jaehoon Kim,  Jihan Kim,  
 R. A. King,  P. Klunzinger,  D. Kosenkov,  T. Kowalczyk,  C. M. Krauter,  
 K. U. Lao,  A. Laurent,  K. V. Lawler,  S. Lehtola,  S. V. Levchenko,  
 C. Y. Lin,  Y.-S. Lin,  F. Liu,  E. Livshits,  R. C. Lochan,  A. Luenser,  
 P. Manohar,  S. F. Manzer,  S.-P. Mao,  N. Mardirossian,  A. V. Marenich,  
 L. A. Martinez-Martinez,  S. A. Maurer,  N. J. Mayhall,  K. Nanda,  
 C. M. Oana,  R. Olivares-Amaya,  D. P. O'Neill,  J. A. Parkhill,  
 T. M. Perrine,  R. Peverati,  P. A. Pieniazek,  F. Plasser,  A. Prociuk,  
 D. R. Rehn,  E. Rosta,  N. J. Russ,  N. Sergueev,  S. M. Sharada,  
 S. Sharma,  D. W. Small,  A. Sodt,  T. Stauch,  T. Stein,  D. Stuck,  
 Y.-C. Su,  A. J. W. Thom,  T. Tsuchimochi,  L. Vogt,  O. Vydrov,  T. Wang,  
 M. A. Watson,  J. Wenzel,  A. White,  C. F. Williams,  V. Vanovschi,  
 S. Yeganeh,  S. R. Yost,  Z.-Q. You,  I. Y. Zhang,  X. Zhang,  Y. Zhao,  
 B. R. Brooks,  G. K. L. Chan,  D. M. Chipman,  C. J. Cramer,  
 W. A. Goddard III,  M. S. Gordon,  W. J. Hehre,  A. Klamt,  
 H. F. Schaefer III,  M. W. Schmidt,  C. D. Sherrill,  D. G. Truhlar,  
 A. Warshel,  X. Xu,  A. Aspuru-Guzik,  R. Baer,  A. T. Bell,  N. A. Besley,  
 J.-D. Chai,  A. Dreuw,  B. D. Dunietz,  T. R. Furlani,  S. R. Gwaltney,  
 C.-P. Hsu,  Y. Jung,  J. Kong,  D. S. Lambrecht,  W. Liang,  C. Ochsenfeld,  
 V. A. Rassolov,  L. V. Slipchenko,  J. E. Subotnik,  T. Van Voorhis,  
 J. M. Herbert,  A. I. Krylov,  P. M. W. Gill,  M. Head-Gordon

 Contributors to earlier versions of Q-Chem not listed above: 
 R. D. Adamson,  J. Baker,  E. F. C. Byrd,  A. K. Chakraborty,  C.-L. Cheng,  
 H. Dachsel,  R. J. Doerksen,  G. Hawkins,  A. Heyden,  S. Hirata,  
 G. Kedziora,  F. J. Keil,  C. Kelley,  P. P. Korambath,  W. Kurlancheek,  
 A. M. Lee,  M. S. Lee,  D. Liotard,  I. Lotan,  P. E. Maslen,  N. Nair,  
 D. Neuhauser,  R. Olson,  B. Peters,  J. Ritchie,  N. E. Schultz,  
 N. Shenvi,  A. C. Simmonett,  K. S. Thanthiriwatte,  Q. Wu,  W. Zhang

 Please cite Q-Chem as follows:
 Y. Shao et al., Mol. Phys. 113, 184-215 (2015)
 DOI: 10.1080/00268976.2014.952696

 Q-Chem 4.3.0 for Intel X86 Linux

 Parts of Q-Chem use Armadillo 5.200.1 (Boston Tea Smuggler).
 http://arma.sourceforge.net/

 Q-Chem begins on Sun Mar 19 18:55:02 2017  

Host: 
0

     Scratch files written to /scratch/qchem/qchem8988//
 Nov1815 1189b_ 19540  19532 5443   
 Parallel job on  1  processors
Processing $rem in /mnt/software/qchem/config/preferences.
 MEM_TOTAL  2000 

Checking the input file for inconsistencies... 	...done.

--------------------------------------------------------------
User input:
--------------------------------------------------------------
$comment
XAS calculation for the 2b valence excited for water using cvs-adc(2)-x + 6-311+G* basis set
job 1 - determination of HF orbitals
$end

$molecule
0 1
6  -0.447381  2.780918  -0.207554
9  0.697756  2.585027  -0.125906
9  -1.069964  3.229851  0.728818
9  -1.5621  0.598669  0.802526
9  -1.007579  2.701493  -1.275711
$end

$rem
jobtype      sp
sym_ignore true
exchange     hf
basis        6-31G*
unrestricted true
$end

--------------------------------------------------------------
 ----------------------------------------------------------------
             Standard Nuclear Orientation (Angstroms)
    I     Atom           X                Y                Z
 ----------------------------------------------------------------
    1      C      -0.4473810000     2.7809180000    -0.2075540000
    2      F       0.6977560000     2.5850270000    -0.1259060000
    3      F      -1.0699640000     3.2298510000     0.7288180000
    4      F      -1.5621000000     0.5986690000     0.8025260000
    5      F      -1.0075790000     2.7014930000    -1.2757110000
 ----------------------------------------------------------------
 Nuclear Repulsion Energy =   188.6430930292 hartrees
 There are       21 alpha and       21 beta electrons
 Requested basis set is 6-31G(d)
 There are 20 shells and 75 basis functions

 Total QAlloc Memory Limit   2000 MB
 Mega-Array Size        61 MB
 MEM_STATIC part        62 MB

                       Distance Matrix (Angstroms)
             C (  1)   F (  2)   F (  3)   F (  4)
   F (  2)  1.164637
   F (  3)  1.210761  2.066685
   F (  4)  2.650485  3.148738  2.677826
   F (  5)  1.208755  2.060044  2.073931  3.008061
 
 tim1(1): 
  0.000000000000000E+000
 tim1(2): 
  0.000000000000000E+000
 A cutoff of  1.0D-08 yielded    190 shell pairs
 There are      2894 function pairs
 
 -------------------------------------------------------
 OpenMP Integral Computing Module                       
 Release: version 1.0, May 2013, Q-Chem Inc. Pittsburgh 
 -------------------------------------------------------
 Integral Job Info:
 Integral job number is                      11
 Integral operator is                         1
 short-range coefficients                     0
 long-range coefficients              100000000
 Omega coefficients                           0
 if combine SR and LR in K                    0
 Integral screening is                        0
 Integral computing path is                   2
 max size of driver memory is            800000
 size of driver memory is                593474
 size of scratch memory is              2260544
 max col of scratch BK array               1296
 max len of scratch array in speh3          155
 max len of scratch index in speh4           18
 max int batch size is                      520
 min int batch size is                       52
 fixed nKL is                                52
 max L of basis functions is                  2
 order of int derivative is                   0
 number of shells is                         20
 number of basis is                          75
 number of cartesian basis is                75
 number of contracted shell pairs           190
 number of primitive shell pairs            919
 maxK2 (contraction) of shell pair           36
 max number of K2 of shell pair               1
 max number of CS2 of shell pair             29
 max number of PS2 of shell pair            180
 mem total for path MDJ                   19336
 -------------------------------------------------------
 Smallest overlap matrix eigenvalue = 3.40E-03

 Scale SEOQF with 1.000000e-01/1.000000e-01/1.000000e+00

 Standard Electronic Orientation quadrupole field applied
 Nucleus-field energy     =    -0.0000000065 hartrees
 Guess from superposition of atomic densities
 Warning:  Energy on first SCF cycle will be non-variational
 An unrestricted Hartree-Fock SCF calculation will be
 performed using Pulay DIIS extrapolation
 SCF converges when DIIS error is below 1.0E-05
 using 8 threads for integral computing 
 ---------------------------------------
  Cycle       Energy         DIIS Error
 ---------------------------------------
    1    -436.6281183535      9.79E-02
    2    -435.1530240007      2.09E-02
    3    -435.2911213458      1.42E-02
    4    -435.3884726315      1.87E-03
    5    -435.3905286312      5.36E-04
    6    -435.3908030771      1.57E-04
    7    -435.3908380455      4.70E-05
    8    -435.3908447340      2.22E-05
    9    -435.3908459077      6.89E-06 Convergence criterion met
 ---------------------------------------
 <S^2> = 0.0000
 SCF time:  CPU 9.92 s  wall 2.20 s
 SCF   energy in the final basis set = -435.3908459077
 Total energy in the final basis set = -435.3908459077
 
 --------------------------------------------------------------
 
                    Orbital Energies (a.u.)
 --------------------------------------------------------------
 
 Alpha MOs
 -- Occupied --
-26.565 -26.536 -26.522 -25.990 -11.739  -1.996  -1.889  -1.856
 -1.239  -1.135  -1.059  -1.052  -1.002  -0.883  -0.878  -0.861
 -0.836  -0.819  -0.350  -0.350  -0.333
 -- Virtual --
  0.048   0.222   0.420   0.435   0.571   0.617   0.667   0.697
  1.163   1.194   1.210   1.297   1.332   1.408   1.449   1.452
  1.488   1.494   1.504   1.560   1.593   1.721   1.754   1.811
  1.852   1.916   1.944   1.956   1.992   2.112   2.119   2.176
  2.189   2.204   2.291   2.339   2.398   2.399   2.423   2.435
  2.453   2.694   2.913   2.952   3.239   3.292   3.470   3.487
  3.519   4.131   4.498   5.094   5.119   5.311
 
 Beta MOs
 -- Occupied --
-26.565 -26.536 -26.522 -25.990 -11.739  -1.996  -1.889  -1.856
 -1.239  -1.135  -1.059  -1.052  -1.002  -0.883  -0.878  -0.861
 -0.836  -0.819  -0.350  -0.350  -0.333
 -- Virtual --
  0.048   0.222   0.420   0.435   0.571   0.617   0.667   0.697
  1.163   1.194   1.210   1.297   1.332   1.408   1.449   1.452
  1.488   1.494   1.504   1.560   1.593   1.721   1.754   1.811
  1.852   1.916   1.944   1.956   1.992   2.112   2.119   2.176
  2.189   2.204   2.291   2.339   2.398   2.399   2.423   2.435
  2.453   2.694   2.913   2.952   3.239   3.292   3.470   3.487
  3.519   4.131   4.498   5.094   5.119   5.311
 --------------------------------------------------------------
 
          Ground-State Mulliken Net Atomic Charges

     Atom                 Charge (a.u.)    Spin (a.u.)
  --------------------------------------------------------
      1 C                     1.083843       0.000000
      2 F                    -0.055441       0.000000
      3 F                    -0.097834       0.000000
      4 F                    -0.818895       0.000000
      5 F                    -0.111673       0.000000
  --------------------------------------------------------
  Sum of atomic charges =     0.000000
  Sum of spin   charges =     0.000000

 -----------------------------------------------------------------
                    Cartesian Multipole Moments
 -----------------------------------------------------------------
    Charge (ESU x 10^10)
                 0.0000
    Dipole Moment (Debye)
         X       4.5439      Y       8.4936      Z      -3.8971
       Tot      10.3911
    Quadrupole Moments (Debye-Ang)
        XX     -31.3299     XY      -0.4096     YY       6.5797
        XZ       5.0551     YZ      -4.2740     ZZ     -25.0227
    Octopole Moments (Debye-Ang^2)
       XXX      64.2338    XXY     -55.8400    XYY       7.1529
       YYY     -68.8698    XXZ      -7.9827    XYZ       3.7704
       YYZ      -8.6370    XZZ      19.8065    YZZ     -53.0240
       ZZZ      -3.8237
    Hexadecapole Moments (Debye-Ang^3)
      XXXX    -189.4905   XXXY      98.0040   XXYY    -168.5996
      XYYY      57.9026   YYYY    -600.8353   XXXZ      25.2087
      XXYZ       1.2719   XYYZ       8.0429   YYYZ      -3.8673
      XXZZ     -48.0463   XYZZ      30.6581   YYZZ    -157.1685
      XZZZ      17.2749   YZZZ      16.8407   ZZZZ     -92.5640
 -----------------------------------------------------------------
Archival summary:
1\1\tp-linux1\SP\HF\6-31G*\41\thomas\SunMar1918:55:042017SunMar1918:55:042017\0\\#,HF,6-31G*,\\0,1\C\F,1,1.16464\F,1,1.20876,2,120.437\F,1,1.21076,2,120.914,3,170.58,0\F,1,2.65049,2,104.379,3,-104.815,0\\HF=-435.390846\\@

 Total job time:  2.52s(wall), 11.64s(cpu) 
 Sun Mar 19 18:55:04 2017

        *************************************************************
        *                                                           *
        *  Thank you very much for using Q-Chem.  Have a nice day.  *
        *                                                           *
        *************************************************************


0 sent ACK to 0 
now end server 0 ... 
cleanup process ... done

Running Job 2 of 2 ddtraj4t30.inp
qchem ddtraj4t30.inp_8988.1 /scratch/qchem/qchem8988/ 1
/mnt/software/qchem/bin/mpi/mpirun_qchem -machinefile /mnt/software/qchem/bin/mpi/machines -np 1 /mnt/software/qchem/exe/qcprog.exe ddtraj4t30.inp_8988.1 /scratch/qchem/qchem8988/

Process 0 of 1 is on tp-linux1 - thread support 0
initial socket setup ...start
initial socket setup ...done 
now start server 0 ... 

cmd = ssh tp-linux1 /mnt/software/qchem/bin/get_hostid 768265465 > /scratch/qchem/qchem8988/lic.dat
                  Welcome to Q-Chem
     A Quantum Leap Into The Future Of Chemistry


 Q-Chem 4.3, Q-Chem, Inc., Pleasanton, CA (2015)

 Y. Shao,  Z. Gan,  E. Epifanovsky,  A. T. B. Gilbert,  M. Wormit,  
 J. Kussmann,  A. W. Lange,  A. Behn,  J. Deng,  X. Feng,  D. Ghosh,  
 M. Goldey,  P. R. Horn,  L. D. Jacobson,  I. Kaliman,  R. Z. Khaliullin,  
 T. Kus,  A. Landau,  J. Liu,  E. I. Proynov,  Y. M. Rhee,  R. M. Richard,  
 M. A. Rohrdanz,  R. P. Steele,  E. J. Sundstrom,  H. L. Woodcock III,  
 P. M. Zimmerman,  D. Zuev,  B. Albrecht,  E. Alguire,  B. Austin,  
 S. A. Baeppler,  G. J. O. Beran,  Y. A. Bernard,  E. Berquist,  
 K. Brandhorst,  K. B. Bravaya,  S. T. Brown,  D. Casanova,  C.-M. Chang,  
 Y. Chen,  S. H. Chien,  K. D. Closser,  D. L. Crittenden,  M. Diedenhofen,  
 R. A. DiStasio Jr.,  H. Do,  A. D. Dutoi,  R. G. Edgar,  P.-T. Fang,  
 S. Fatehi,  Q. Feng,  L. Fusti-Molnar,  A. Ghysels,  
 A. Golubeva-Zadorozhnaya,  J. Gomes,  A. Gunina,  M. W. D. Hanson-Heine,  
 P. H. P. Harbach,  A. W. Hauser,  E. G. Hohenstein,  Z. C. Holden,  K. Hui,  
 T.-C. Jagau,  H. Ji,  B. Kaduk,  K. Khistyaev,  Jaehoon Kim,  Jihan Kim,  
 R. A. King,  P. Klunzinger,  D. Kosenkov,  T. Kowalczyk,  C. M. Krauter,  
 K. U. Lao,  A. Laurent,  K. V. Lawler,  S. Lehtola,  S. V. Levchenko,  
 C. Y. Lin,  Y.-S. Lin,  F. Liu,  E. Livshits,  R. C. Lochan,  A. Luenser,  
 P. Manohar,  S. F. Manzer,  S.-P. Mao,  N. Mardirossian,  A. V. Marenich,  
 L. A. Martinez-Martinez,  S. A. Maurer,  N. J. Mayhall,  K. Nanda,  
 C. M. Oana,  R. Olivares-Amaya,  D. P. O'Neill,  J. A. Parkhill,  
 T. M. Perrine,  R. Peverati,  P. A. Pieniazek,  F. Plasser,  A. Prociuk,  
 D. R. Rehn,  E. Rosta,  N. J. Russ,  N. Sergueev,  S. M. Sharada,  
 S. Sharma,  D. W. Small,  A. Sodt,  T. Stauch,  T. Stein,  D. Stuck,  
 Y.-C. Su,  A. J. W. Thom,  T. Tsuchimochi,  L. Vogt,  O. Vydrov,  T. Wang,  
 M. A. Watson,  J. Wenzel,  A. White,  C. F. Williams,  V. Vanovschi,  
 S. Yeganeh,  S. R. Yost,  Z.-Q. You,  I. Y. Zhang,  X. Zhang,  Y. Zhao,  
 B. R. Brooks,  G. K. L. Chan,  D. M. Chipman,  C. J. Cramer,  
 W. A. Goddard III,  M. S. Gordon,  W. J. Hehre,  A. Klamt,  
 H. F. Schaefer III,  M. W. Schmidt,  C. D. Sherrill,  D. G. Truhlar,  
 A. Warshel,  X. Xu,  A. Aspuru-Guzik,  R. Baer,  A. T. Bell,  N. A. Besley,  
 J.-D. Chai,  A. Dreuw,  B. D. Dunietz,  T. R. Furlani,  S. R. Gwaltney,  
 C.-P. Hsu,  Y. Jung,  J. Kong,  D. S. Lambrecht,  W. Liang,  C. Ochsenfeld,  
 V. A. Rassolov,  L. V. Slipchenko,  J. E. Subotnik,  T. Van Voorhis,  
 J. M. Herbert,  A. I. Krylov,  P. M. W. Gill,  M. Head-Gordon

 Contributors to earlier versions of Q-Chem not listed above: 
 R. D. Adamson,  J. Baker,  E. F. C. Byrd,  A. K. Chakraborty,  C.-L. Cheng,  
 H. Dachsel,  R. J. Doerksen,  G. Hawkins,  A. Heyden,  S. Hirata,  
 G. Kedziora,  F. J. Keil,  C. Kelley,  P. P. Korambath,  W. Kurlancheek,  
 A. M. Lee,  M. S. Lee,  D. Liotard,  I. Lotan,  P. E. Maslen,  N. Nair,  
 D. Neuhauser,  R. Olson,  B. Peters,  J. Ritchie,  N. E. Schultz,  
 N. Shenvi,  A. C. Simmonett,  K. S. Thanthiriwatte,  Q. Wu,  W. Zhang

 Please cite Q-Chem as follows:
 Y. Shao et al., Mol. Phys. 113, 184-215 (2015)
 DOI: 10.1080/00268976.2014.952696

 Q-Chem 4.3.0 for Intel X86 Linux

 Parts of Q-Chem use Armadillo 5.200.1 (Boston Tea Smuggler).
 http://arma.sourceforge.net/

 Q-Chem begins on Sun Mar 19 18:55:07 2017  

Host: 
0

     Scratch files written to /scratch/qchem/qchem8988//
 Nov1815 1189b_ 19540  19532 5443   
 Parallel job on  1  processors
Processing $rem in /mnt/software/qchem/config/preferences.
 MEM_TOTAL  2000 

Checking the input file for inconsistencies... 	...done.

--------------------------------------------------------------
User input:
--------------------------------------------------------------

$comment
job3 - cvs-adc(2) calculation
$end

$molecule
read
$end

$rem
mem_total 3000
mem_static 1500
sym_ignore true
scf_guess read
method cvs-adc(2)
basis 6-31G*
ee_singlets 20
cc_rest_occ 5                  !only excitations from the lowest N orbitals
unrestricted  true
max_scf_cycles 200
$end
--------------------------------------------------------------
 ----------------------------------------------------------------
             Standard Nuclear Orientation (Angstroms)
    I     Atom           X                Y                Z
 ----------------------------------------------------------------
    1      C      -0.4473810000     2.7809180000    -0.2075540000
    2      F       0.6977560000     2.5850270000    -0.1259060000
    3      F      -1.0699640000     3.2298510000     0.7288180000
    4      F      -1.5621000000     0.5986690000     0.8025260000
    5      F      -1.0075790000     2.7014930000    -1.2757110000
 ----------------------------------------------------------------
 Nuclear Repulsion Energy =   188.6430930292 hartrees
 There are       21 alpha and       21 beta electrons
 Requested basis set is 6-31G(d)
 There are 20 shells and 75 basis functions

 Total QAlloc Memory Limit   3000 MB
 Mega-Array Size      1467 MB
 MEM_STATIC part      1500 MB

                       Distance Matrix (Angstroms)
             C (  1)   F (  2)   F (  3)   F (  4)
   F (  2)  1.164637
   F (  3)  1.210761  2.066685
   F (  4)  2.650485  3.148738  2.677826
   F (  5)  1.208755  2.060044  2.073931  3.008061
 
 tim1(1): 
  0.000000000000000E+000
 tim1(2): 
  0.000000000000000E+000
 A cutoff of  1.0D-11 yielded    197 shell pairs
 There are      2954 function pairs
 
 -------------------------------------------------------
 OpenMP Integral Computing Module                       
 Release: version 1.0, May 2013, Q-Chem Inc. Pittsburgh 
 -------------------------------------------------------
 Integral Job Info:
 Integral job number is                      11
 Integral operator is                         1
 short-range coefficients                     0
 long-range coefficients              100000000
 Omega coefficients                           0
 if combine SR and LR in K                    0
 Integral screening is                        0
 Integral computing path is                   2
 max size of driver memory is            800000
 size of driver memory is                593474
 size of scratch memory is              2260544
 max col of scratch BK array               1296
 max len of scratch array in speh3          155
 max len of scratch index in speh4           18
 max int batch size is                      520
 min int batch size is                       52
 fixed nKL is                                52
 max L of basis functions is                  2
 order of int derivative is                   0
 number of shells is                         20
 number of basis is                          75
 number of cartesian basis is                75
 number of contracted shell pairs           197
 number of primitive shell pairs            996
 maxK2 (contraction) of shell pair           36
 max number of K2 of shell pair               1
 max number of CS2 of shell pair             32
 max number of PS2 of shell pair            192
 mem total for path MDJ                   20584
 -------------------------------------------------------
 Smallest overlap matrix eigenvalue = 3.40E-03

 Scale SEOQF with 1.000000e-01/1.000000e-01/1.000000e+00

 Standard Electronic Orientation quadrupole field applied
 Nucleus-field energy     =    -0.0000000065 hartrees
 Guess MOs from SCF MO coefficient file
 Reading MOs from coefficient file
 Reading MOs from coefficient file
 An unrestricted Hartree-Fock SCF calculation will be
 performed using Pulay DIIS extrapolation
 SCF converges when DIIS error is below 1.0E-08
 using 8 threads for integral computing 
 ---------------------------------------
  Cycle       Energy         DIIS Error
 ---------------------------------------
    1    -435.3908461418      2.50E-06
    2    -435.3908461514      1.49E-06
    3    -435.3908461547      7.58E-07
    4    -435.3908461574      1.07E-07
    5    -435.3908461575      4.03E-08
    6    -435.3908461575      1.73E-08
    7    -435.3908461575      4.68E-09 Convergence criterion met
 ---------------------------------------
 <S^2> = 0.0000
 SCF time:  CPU 6.89 s  wall 1.90 s
 SCF   energy in the final basis set = -435.3908461575
 Total energy in the final basis set = -435.3908461575
================================================================================
|                                                                              |
|                                 A D C  M A N                                 |
|                                                                              |
 ------------------------------------------------------------------------------ 
|                                                                              |
| Components:                                                                  |
|                                                                              |
| - libvmm - 1.2-release                                                       |
|   Authors:                                                                   |
|   Evgeny Epifanovsky, Ilya Kaliman                                           |
|                                                                              |
| - libtensor - 2.4-trunk                                                      |
|   Authors:                                                                   |
|   Evgeny Epifanovsky, Michael Wormit, Dmitry Zuev, Sam Manzer                |
|                                                                              |
| - libwfa - 1.1-beta                                                          |
|   Authors:                                                                   |
|   Felix Plasser, Stefanie Baeppler, Benjamin Thomitzni, Michael Wormit       |
|                                                                              |
| - libadc - 1.0-beta                                                          |
|   Authors:                                                                   |
|   Michael Wormit, Philipp H. P. Harbach, Caroline Krauter, Dirk Rehn,        |
|   Matthias Schneider, Jan Wenzel                                             |
|                                                                              |
| - adcman - 2.4-beta                                                          |
|   Authors:                                                                   |
|   Michael Wormit, Philipp H. P. Harbach, Caroline Krauter, Dirk Rehn,        |
|   Jan Wenzel, Andreas Dreuw                                                  |
|                                                                              |
| Authors of earlier versions of ADCMAN:                                       |
| Andreas Dreuw, Jan Hendrik Starcke, Dirk Rehn, Michael Wormit                |
|                                                                              |
================================================================================

 
 Alpha MOs, Unrestricted
 -- Occupied --                  
-26.564 -26.536 -26.522 -25.990 -11.739  -1.996  -1.889  -1.856
  1 A     2 A     3 A     4 A     5 A     6 A     7 A     8 A                  
 -1.239  -1.135  -1.059  -1.052  -1.002  -0.883  -0.878  -0.861
  9 A    10 A    11 A    12 A    13 A    14 A    15 A    16 A                  
 -0.836  -0.819  -0.350  -0.350  -0.333
 17 A    18 A    19 A    20 A    21 A                                          
 -- Virtual --                   
  0.048   0.222   0.420   0.435   0.571   0.617   0.667   0.697
 22 A    23 A    24 A    25 A    26 A    27 A    28 A    29 A                  
  1.163   1.194   1.210   1.297   1.332   1.408   1.449   1.452
 30 A    31 A    32 A    33 A    34 A    35 A    36 A    37 A                  
  1.488   1.494   1.504   1.560   1.593   1.721   1.754   1.811
 38 A    39 A    40 A    41 A    42 A    43 A    44 A    45 A                  
  1.852   1.916   1.944   1.956   1.992   2.112   2.119   2.176
 46 A    47 A    48 A    49 A    50 A    51 A    52 A    53 A                  
  2.189   2.204   2.291   2.339   2.398   2.399   2.423   2.435
 54 A    55 A    56 A    57 A    58 A    59 A    60 A    61 A                  
  2.453   2.694   2.913   2.952   3.239   3.292   3.470   3.487
 62 A    63 A    64 A    65 A    66 A    67 A    68 A    69 A                  
  3.519   4.131   4.498   5.094   5.119   5.311
 70 A    71 A    72 A    73 A    74 A    75 A                                  
 
 Beta MOs, Unrestricted
 -- Occupied --                  
-26.564 -26.536 -26.522 -25.990 -11.739  -1.996  -1.889  -1.856
  1 A     2 A     3 A     4 A     5 A     6 A     7 A     8 A                  
 -1.239  -1.135  -1.059  -1.052  -1.002  -0.883  -0.878  -0.861
  9 A    10 A    11 A    12 A    13 A    14 A    15 A    16 A                  
 -0.836  -0.819  -0.350  -0.350  -0.333
 17 A    18 A    19 A    20 A    21 A                                          
 -- Virtual --                   
  0.048   0.222   0.420   0.435   0.571   0.617   0.667   0.697
 22 A    23 A    24 A    25 A    26 A    27 A    28 A    29 A                  
  1.163   1.194   1.210   1.297   1.332   1.408   1.449   1.452
 30 A    31 A    32 A    33 A    34 A    35 A    36 A    37 A                  
  1.488   1.494   1.504   1.560   1.593   1.721   1.754   1.811
 38 A    39 A    40 A    41 A    42 A    43 A    44 A    45 A                  
  1.852   1.916   1.944   1.956   1.992   2.112   2.119   2.176
 46 A    47 A    48 A    49 A    50 A    51 A    52 A    53 A                  
  2.189   2.204   2.291   2.339   2.398   2.399   2.423   2.435
 54 A    55 A    56 A    57 A    58 A    59 A    60 A    61 A                  
  2.453   2.694   2.913   2.952   3.239   3.292   3.470   3.487
 62 A    63 A    64 A    65 A    66 A    67 A    68 A    69 A                  
  3.519   4.131   4.498   5.094   5.119   5.311
 70 A    71 A    72 A    73 A    74 A    75 A                                  
 

--------------------------------------------------------------------------------
                                   HF Summary                                   
--------------------------------------------------------------------------------
  Energy:                                                 -435.3908461575 a.u.
  Dip. moment [a.u.]:                  [ -56.894685,  183.213597,    1.386395]
  Total dipole [Debye]:                                             487.632343
  <r^2> [a.u.]:                        [ 191.077913,  956.930459,  110.112794]
  Total <r^2> [a.u.]:                                              1258.121166
--------------------------------------------------------------------------------

--------------------------------------------------------------------------------
                                 MP(2) Summary                                  
--------------------------------------------------------------------------------
  Energy contribution:                                      -0.7986550959 a.u.
  Total energy:                                           -436.1895012534 a.u.
  Dip. moment [a.u.]:                  [ -56.735747,  183.457444,    1.254991]
  Total dipole [Debye]:                                             488.102474
  <r^2> [a.u.]:                        [ 190.357176,  958.492680,  109.813931]
  Total <r^2> [a.u.]:                                              1258.663786
--------------------------------------------------------------------------------
  Starting Davidson ... 
--------------------------------------------------------------------------------
   It NVec Conv  Avg. Norm  Max. Norm  Conv. states           Remark
--------------------------------------------------------------------------------
        20    0  2.090e-01  1.063e+00 10.9994 n n n n n n n n Guess.
    1   40    0  3.827e-02  4.070e-01 10.8440 n n n n n n n n 
    2   60    0  8.900e-03  1.156e-01 10.8427 n n n n n n n n 
    3   80    0  2.196e-03  2.233e-02 10.8426 n n n n n n n n 
    4  100    0  1.343e-03  1.419e-02 10.8426 n n n n n n n n 
    5   40    0  8.839e-04  1.003e-02 10.8426 n n n n n n n n Subspace collapsed.
    6   60    0  1.130e-03  1.378e-02 10.8426 n n n n n n n n 
    7   80    0  1.475e-03  2.242e-02 10.8426 n n n n n n n n 
    8  100    2  1.147e-02  2.283e-01 10.8426 y y n n n n n n 
    9   40    7  1.107e-02  2.211e-01 10.8426 y y n y y y y y Subspace collapsed.
   10   60    7  1.425e-02  2.277e-01 10.8426 y y n y y y y y 
   11   80    9  1.259e-02  1.821e-01 10.8426 y y y y y y y y 
   12  100   14  1.037e-02  1.545e-01 10.8426 y y y y y y y y 
   13   40   14  9.536e-03  1.376e-01 10.8426 y y y y y y y y Subspace collapsed.
   14   60   15  8.443e-03  1.216e-01 10.8426 y y y y y y y y 
   15   80   15  8.339e-03  1.185e-01 10.8426 y y y y y y y y 
   16  100   16  7.475e-03  1.126e-01 10.8426 y y y y y y y y 
   17   39   16  7.121e-03  1.060e-01 10.8426 y y y y y y y y Subspace collapsed.
   18   57   16  6.766e-03  1.032e-01 10.8426 y y y y y y y y 
   19   59   16  6.750e-03  1.028e-01 10.8426 y y y y y y y y 
   20   75   16  6.131e-03  9.706e-02 10.8426 y y y y y y y y 
   21   76   16  6.141e-03  9.706e-02 10.8426 y y y y y y y y 
   22   76   16  6.141e-03  9.706e-02 10.8426 y y y y y y y y 
   23   96   16  5.935e-03  9.378e-02 10.8426 y y y y y y y y 
   24  100   16  5.780e-03  9.378e-02 10.8426 y y y y y y y y 
   25   32   16  5.583e-03  9.176e-02 10.8426 y y y y y y y y Subspace collapsed.
   26   44   16  5.348e-03  8.941e-02 10.8426 y y y y y y y y 
   27   47   16  5.330e-03  8.895e-02 10.8426 y y y y y y y y 
   28   47   16  5.330e-03  8.895e-02 10.8426 y y y y y y y y 
   29   48   16  5.279e-03  8.895e-02 10.8426 y y y y y y y y 
   30   48   16  5.279e-03  8.895e-02 10.8426 y y y y y y y y 
   31   48   16  5.279e-03  8.895e-02 10.8426 y y y y y y y y 
   32   68   16  4.706e-03  8.735e-02 10.8426 y y y y y y y y 
   33   68   16  4.706e-03  8.735e-02 10.8426 y y y y y y y y 
   34   80   16  4.338e-03  8.444e-02 10.8426 y y y y y y y y 
   35   87   16  4.074e-03  8.046e-02 10.8426 y y y y y y y y 
   36   93   16  4.054e-03  8.009e-02 10.8426 y y y y y y y y 
   37   99   16  3.007e-03  5.926e-02 10.8426 y y y y y y y y 
   38  100   16  2.981e-03  5.874e-02 10.8426 y y y y y y y y 
   39   26   16  1.819e-03  3.535e-02 10.8426 y y y y y y y y Subspace collapsed.
   40   32   17  1.549e-03  2.966e-02 10.8426 y y y y y y y y 
   41   38   17  1.416e-03  2.758e-02 10.8426 y y y y y y y y 
   42   44   17  1.238e-03  2.414e-02 10.8426 y y y y y y y y 
   43   50   17  7.450e-04  1.426e-02 10.8426 y y y y y y y y 
   44   56   18  4.024e-04  7.336e-03 10.8426 y y y y y y y y 
   45   61   18  2.963e-04  5.056e-03 10.8426 y y y y y y y y 
   46   66   18  2.004e-04  3.390e-03 10.8426 y y y y y y y y 
   47   71   18  1.229e-04  2.088e-03 10.8426 y y y y y y y y 
   48   76   18  7.013e-05  1.142e-03 10.8426 y y y y y y y y 
   49   76   18  7.013e-05  1.142e-03 10.8426 y y y y y y y y 
   50   76   18  7.013e-05  1.142e-03 10.8426 y y y y y y y y 
   51   96   18  3.961e-05  6.729e-04 10.8426 y y y y y y y y 
   52   96   18  3.961e-05  6.729e-04 10.8426 y y y y y y y y 
   53   96   18  3.961e-05  6.729e-04 10.8426 y y y y y y y y 
   54  100   18  3.881e-05  6.661e-04 10.8426 y y y y y y y y 
   55   21   18  3.878e-05  6.654e-04 10.8426 y y y y y y y y Subspace collapsed.
   56   21   18  3.878e-05  6.654e-04 10.8426 y y y y y y y y 
   57   22   18  3.878e-05  6.658e-04 10.8426 y y y y y y y y 
   58   27   18  2.136e-05  3.624e-04 10.8426 y y y y y y y y 
   59   32   18  1.990e-05  3.467e-04 10.8426 y y y y y y y y 
--------------------------------------------------------------------------------
  Davidson Summary: 
 ------------------------------------------------------------
  State  0: excitation energy =  10.8426 a.u.   (converged)
  State  1: excitation energy =  10.9152 a.u.   (converged)
  State  2: excitation energy =  11.1648 a.u.   (converged)
  State  3: excitation energy =  11.2186 a.u.   (converged)
  State  4: excitation energy =  11.2425 a.u.   (converged)
  State  5: excitation energy =  11.2879 a.u.   (converged)
  State  6: excitation energy =  11.3244 a.u.   (converged)
  State  7: excitation energy =  11.3674 a.u.   (converged)
  State  8: excitation energy =  11.4910 a.u.   (converged)
  State  9: excitation energy =  11.5441 a.u.   (converged)
  State 10: excitation energy =  11.5610 a.u.   (converged)
  State 11: excitation energy =  11.5734 a.u.   (converged)
  State 12: excitation energy =  11.5767 a.u.   (converged)
  State 13: excitation energy =  11.5908 a.u.   (converged)
  State 14: excitation energy =  11.6536 a.u.   (converged)
  State 15: excitation energy =  11.6889 a.u.   (converged)
  State 16: excitation energy =  12.1683 a.u.   (not converged)
  State 17: excitation energy =  12.1686 a.u.   (not converged)
  State 18: excitation energy =  12.1789 a.u.   (converged)
  State 19: excitation energy =  12.1852 a.u.   (converged)
 ------------------------------------------------------------


--------------------------------------------------------------------------------
                             Excited State Summary
--------------------------------------------------------------------------------

  Excited state  1 (A)                                             [converged]
  ----------------------------------------------------------------------------
  Term symbol:  2 (-) A                                     R^2 =  2.12386e-13

  Total energy:                                           -425.3468760501 a.u.
  Excitation energy:                                             295.042837 eV

  Osc. strength:                                                      0.000000
  Trans. dip. moment [a.u.]:           [  -0.000000,   -0.000000,    0.000000]
  <i|r^2|0> [a.u.]:                    [   0.000000,   -0.000000,   -0.000000]

  V1^2 = 0.9597, V2^2 = 0.0403

  Important amplitudes:
     core i     occ j      vir a      vir b          v   
    ------------------------------------------------------
     5 (A) B              22 (A) B                -0.6586
     5 (A) A              22 (A) A                 0.6586
    ------------------------------------------------------
  ----------------------------------------------------------------------------


  Excited state  2 (A)                                             [converged]
  ----------------------------------------------------------------------------
  Term symbol:  3 (-) A                                     R^2 =  4.72207e-13

  Total energy:                                           -425.2743317148 a.u.
  Excitation energy:                                             297.016869 eV

  Osc. strength:                                                      0.112738
  Trans. dip. moment [a.u.]:           [   0.028149,    0.117458,   -0.030068]
  <i|r^2|0> [a.u.]:                    [  -0.049524,    1.232926,    0.021668]

  V1^2 = 0.9553, V2^2 = 0.0447

  Important amplitudes:
     core i     occ j      vir a      vir b          v   
    ------------------------------------------------------
     5 (A) A              22 (A) A                 0.6689
     5 (A) B              22 (A) B                 0.6689
    ------------------------------------------------------
  ----------------------------------------------------------------------------


  Excited state  3 (A)                                             [converged]
  ----------------------------------------------------------------------------
  Term symbol:  4 (-) A                                     R^2 =  2.24677e-13

  Total energy:                                           -425.0247397693 a.u.
  Excitation energy:                                             303.808611 eV

  Osc. strength:                                                      0.000000
  Trans. dip. moment [a.u.]:           [   0.000000,   -0.000000,   -0.000000]
  <i|r^2|0> [a.u.]:                    [   0.000000,   -0.000000,    0.000000]

  V1^2 = 0.9288, V2^2 = 0.0712

  Important amplitudes:
     core i     occ j      vir a      vir b          v   
    ------------------------------------------------------
     5 (A) A              23 (A) A                 0.6081
     5 (A) B              23 (A) B                -0.6081
    ------------------------------------------------------
  ----------------------------------------------------------------------------


  Excited state  4 (A)                                             [converged]
  ----------------------------------------------------------------------------
  Term symbol:  5 (-) A                                     R^2 =  1.62207e-13

  Total energy:                                           -424.9709018996 a.u.
  Excitation energy:                                             305.273614 eV

  Osc. strength:                                                      0.001088
  Trans. dip. moment [a.u.]:           [  -0.011724,   -0.001322,   -0.002512]
  <i|r^2|0> [a.u.]:                    [   0.033528,    0.013565,    0.015858]

  V1^2 = 0.9169, V2^2 = 0.0831

  Important amplitudes:
     core i     occ j      vir a      vir b          v   
    ------------------------------------------------------
     5 (A) B              23 (A) B                 0.6492
     5 (A) A              23 (A) A                 0.6492
    ------------------------------------------------------
  ----------------------------------------------------------------------------


  Excited state  5 (A)                                             [converged]
  ----------------------------------------------------------------------------
  Term symbol:  6 (-) A                                     R^2 =  5.59347e-14

  Total energy:                                           -424.9470401449 a.u.
  Excitation energy:                                             305.922925 eV

  Osc. strength:                                                      0.000000
  Trans. dip. moment [a.u.]:           [   0.000000,    0.000000,    0.000000]
  <i|r^2|0> [a.u.]:                    [  -0.000000,    0.000000,   -0.000000]

  V1^2 = 0.9548, V2^2 = 0.0452

  Important amplitudes:
     core i     occ j      vir a      vir b          v   
    ------------------------------------------------------
     5 (A) B              27 (A) B                 0.5253
     5 (A) A              27 (A) A                -0.5253
    ------------------------------------------------------
  ----------------------------------------------------------------------------


  Excited state  6 (A)                                             [converged]
  ----------------------------------------------------------------------------
  Term symbol:  7 (-) A                                     R^2 =  4.60321e-14

  Total energy:                                           -424.9015846620 a.u.
  Excitation energy:                                             307.159832 eV

  Osc. strength:                                                      0.000000
  Trans. dip. moment [a.u.]:           [   0.000000,    0.000000,    0.000000]
  <i|r^2|0> [a.u.]:                    [  -0.000000,    0.000000,   -0.000000]

  V1^2 = 0.9528, V2^2 = 0.0472

  Important amplitudes:
     core i     occ j      vir a      vir b          v   
    ------------------------------------------------------
     5 (A) B              28 (A) B                 0.5286
     5 (A) A              28 (A) A                -0.5286
    ------------------------------------------------------
  ----------------------------------------------------------------------------


  Excited state  7 (A)                                             [converged]
  ----------------------------------------------------------------------------
  Term symbol:  8 (-) A                                     R^2 =  3.04265e-14

  Total energy:                                           -424.8651460748 a.u.
  Excitation energy:                                             308.151376 eV

  Osc. strength:                                                      0.121818
  Trans. dip. moment [a.u.]:           [   0.001425,   -0.030834,   -0.123219]
  <i|r^2|0> [a.u.]:                    [  -0.002178,   -0.323551,    0.094584]

  V1^2 = 0.9456, V2^2 = 0.0544

  Important amplitudes:
     core i     occ j      vir a      vir b          v   
    ------------------------------------------------------
     5 (A) A              24 (A) A                -0.4854
     5 (A) B              24 (A) B                -0.4854
    ------------------------------------------------------
  ----------------------------------------------------------------------------


  Excited state  8 (A)                                             [converged]
  ----------------------------------------------------------------------------
  Term symbol:  9 (-) A                                     R^2 =  6.94269e-14

  Total energy:                                           -424.8221228875 a.u.
  Excitation energy:                                             309.322097 eV

  Osc. strength:                                                      0.114412
  Trans. dip. moment [a.u.]:           [  -0.119412,    0.027639,   -0.008613]
  <i|r^2|0> [a.u.]:                    [   0.211788,    0.290678,    0.000644]

  V1^2 = 0.9426, V2^2 = 0.0574

  Important amplitudes:
     core i     occ j      vir a      vir b          v   
    ------------------------------------------------------
     5 (A) A              25 (A) A                -0.4740
     5 (A) B              25 (A) B                -0.4740
    ------------------------------------------------------
  ----------------------------------------------------------------------------


  Excited state  9 (A)                                             [converged]
  ----------------------------------------------------------------------------
  Term symbol:  10 (-) A                                    R^2 =  2.77775e-13

  Total energy:                                           -424.6984926616 a.u.
  Excitation energy:                                             312.686246 eV

  Osc. strength:                                                      0.000000
  Trans. dip. moment [a.u.]:           [  -0.000000,   -0.000000,    0.000000]
  <i|r^2|0> [a.u.]:                    [   0.000000,   -0.000000,   -0.000000]

  V1^2 = 0.9150, V2^2 = 0.0850

  Important amplitudes:
     core i     occ j      vir a      vir b          v   
    ------------------------------------------------------
     5 (A) B              26 (A) B                 0.5472
     5 (A) A              26 (A) A                -0.5472
    ------------------------------------------------------
  ----------------------------------------------------------------------------


  Excited state 10 (A)                                             [converged]
  ----------------------------------------------------------------------------
  Term symbol:  11 (-) A                                    R^2 =  4.46887e-13

  Total energy:                                           -424.6454307441 a.u.
  Excitation energy:                                             314.130134 eV

  Osc. strength:                                                      0.024111
  Trans. dip. moment [a.u.]:           [  -0.013382,   -0.053527,    0.009416]
  <i|r^2|0> [a.u.]:                    [   0.006190,   -0.583404,   -0.025325]

  V1^2 = 0.9137, V2^2 = 0.0863

  Important amplitudes:
     core i     occ j      vir a      vir b          v   
    ------------------------------------------------------
     5 (A) A              26 (A) A                 0.6205
     5 (A) B              26 (A) B                 0.6205
    ------------------------------------------------------
  ----------------------------------------------------------------------------


  Excited state 11 (A)                                             [converged]
  ----------------------------------------------------------------------------
  Term symbol:  12 (-) A                                    R^2 =  2.67672e-13

  Total energy:                                           -424.6284898195 a.u.
  Excitation energy:                                             314.591120 eV

  Osc. strength:                                                      0.000000
  Trans. dip. moment [a.u.]:           [  -0.000000,   -0.000000,    0.000000]
  <i|r^2|0> [a.u.]:                    [   0.000000,   -0.000000,   -0.000000]

  V1^2 = 0.8954, V2^2 = 0.1046

  Important amplitudes:
     core i     occ j      vir a      vir b          v   
    ------------------------------------------------------
     5 (A) B              24 (A) B                -0.4488
     5 (A) A              24 (A) A                 0.4488
    ------------------------------------------------------
  ----------------------------------------------------------------------------


  Excited state 12 (A)                                             [converged]
  ----------------------------------------------------------------------------
  Term symbol:  13 (-) A                                    R^2 =  1.32186e-13

  Total energy:                                           -424.6161090025 a.u.
  Excitation energy:                                             314.928020 eV

  Osc. strength:                                                      0.000000
  Trans. dip. moment [a.u.]:           [   0.000000,   -0.000000,   -0.000000]
  <i|r^2|0> [a.u.]:                    [  -0.000000,   -0.000000,    0.000000]

  V1^2 = 0.8941, V2^2 = 0.1059

  Important amplitudes:
     core i     occ j      vir a      vir b          v   
    ------------------------------------------------------
     5 (A) A              25 (A) A                -0.4619
     5 (A) B              25 (A) B                 0.4619
    ------------------------------------------------------
  ----------------------------------------------------------------------------


  Excited state 13 (A)                                             [converged]
  ----------------------------------------------------------------------------
  Term symbol:  14 (-) A                                    R^2 =  5.47547e-13

  Total energy:                                           -424.6127621379 a.u.
  Excitation energy:                                             315.019092 eV

  Osc. strength:                                                      0.026060
  Trans. dip. moment [a.u.]:           [  -0.013091,    0.022064,    0.052139]
  <i|r^2|0> [a.u.]:                    [   0.017542,    0.225473,   -0.046674]

  V1^2 = 0.8984, V2^2 = 0.1016

  Important amplitudes:
     core i     occ j      vir a      vir b          v   
    ------------------------------------------------------
     5 (A) A              27 (A) A                 0.4731
     5 (A) B              27 (A) B                 0.4731
    ------------------------------------------------------
  ----------------------------------------------------------------------------


  Excited state 14 (A)                                             [converged]
  ----------------------------------------------------------------------------
  Term symbol:  15 (-) A                                    R^2 =  3.26432e-13

  Total energy:                                           -424.5986772116 a.u.
  Excitation energy:                                             315.402363 eV

  Osc. strength:                                                      0.032997
  Trans. dip. moment [a.u.]:           [  -0.060954,    0.014852,   -0.018284]
  <i|r^2|0> [a.u.]:                    [   0.100716,    0.149078,    0.005821]

  V1^2 = 0.9004, V2^2 = 0.0996

  Important amplitudes:
     core i     occ j      vir a      vir b          v   
    ------------------------------------------------------
     5 (A) A              25 (A) A                 0.4487
     5 (A) B              25 (A) B                 0.4487
    ------------------------------------------------------
  ----------------------------------------------------------------------------


  Excited state 15 (A)                                             [converged]
  ----------------------------------------------------------------------------
  Term symbol:  16 (-) A                                    R^2 =  3.76150e-13

  Total energy:                                           -424.5359199222 a.u.
  Excitation energy:                                             317.110075 eV

  Osc. strength:                                                      0.000000
  Trans. dip. moment [a.u.]:           [  -0.000000,   -0.000000,    0.000000]
  <i|r^2|0> [a.u.]:                    [   0.000000,   -0.000000,    0.000000]

  V1^2 = 0.9002, V2^2 = 0.0998

  Important amplitudes:
     core i     occ j      vir a      vir b          v   
    ------------------------------------------------------
     5 (A) B              29 (A) B                 0.5554
     5 (A) A              29 (A) A                -0.5554
    ------------------------------------------------------
  ----------------------------------------------------------------------------


  Excited state 16 (A)                                             [converged]
  ----------------------------------------------------------------------------
  Term symbol:  17 (-) A                                    R^2 =  3.88999e-12

  Total energy:                                           -424.5006136452 a.u.
  Excitation energy:                                             318.070808 eV

  Osc. strength:                                                      0.017445
  Trans. dip. moment [a.u.]:           [  -0.020100,   -0.038699,    0.018361]
  <i|r^2|0> [a.u.]:                    [   0.050627,   -0.389399,    0.002662]

  V1^2 = 0.9030, V2^2 = 0.0970

  Important amplitudes:
     core i     occ j      vir a      vir b          v   
    ------------------------------------------------------
     5 (A) A              29 (A) A                 0.6146
     5 (A) B              29 (A) B                 0.6146
    ------------------------------------------------------
  ----------------------------------------------------------------------------


  Excited state 17 (A)                                         [not converged]
  ----------------------------------------------------------------------------
  Term symbol:  18 (-) A                                    R^2 =  1.95265e-04

  Total energy:                                           -424.0211606322 a.u.
  Excitation energy:                                             331.117388 eV


  V1^2 = 0.0027, V2^2 = 0.9973

  Important amplitudes:
     core i     occ j      vir a      vir b          v   
    ------------------------------------------------------
     5 (A) B   21 (A) A   22 (A) A   22 (A) B      0.4994
     5 (A) A   21 (A) B   22 (A) A   22 (A) B      0.4990
    ------------------------------------------------------
  ----------------------------------------------------------------------------


  Excited state 18 (A)                                         [not converged]
  ----------------------------------------------------------------------------
  Term symbol:  19 (-) A                                    R^2 =  3.46717e-04

  Total energy:                                           -424.0209340124 a.u.
  Excitation energy:                                             331.123555 eV


  V1^2 = 0.0029, V2^2 = 0.9971

  Important amplitudes:
     core i     occ j      vir a      vir b          v   
    ------------------------------------------------------
     5 (A) A   21 (A) B   22 (A) A   22 (A) B     -0.4993
     5 (A) B   21 (A) A   22 (A) A   22 (A) B      0.4989
    ------------------------------------------------------
  ----------------------------------------------------------------------------


  Excited state 19 (A)                                             [converged]
  ----------------------------------------------------------------------------
  Term symbol:  20 (-) A                                    R^2 =  7.13758e-08

  Total energy:                                           -424.0105975815 a.u.
  Excitation energy:                                             331.404823 eV

  Osc. strength:                                                      0.000000
  Trans. dip. moment [a.u.]:           [   0.000000,   -0.000000,    0.000000]
  <i|r^2|0> [a.u.]:                    [  -0.000000,   -0.000000,   -0.000000]

  V1^2 = 0.8740, V2^2 = 0.1260

  Important amplitudes:
     core i     occ j      vir a      vir b          v   
    ------------------------------------------------------
     5 (A) B              30 (A) B                -0.5996
     5 (A) A              30 (A) A                 0.5996
    ------------------------------------------------------
  ----------------------------------------------------------------------------


  Excited state 20 (A)                                             [converged]
  ----------------------------------------------------------------------------
  Term symbol:  21 (-) A                                    R^2 =  2.19810e-08

  Total energy:                                           -424.0042767062 a.u.
  Excitation energy:                                             331.576823 eV

  Osc. strength:                                                      0.007370
  Trans. dip. moment [a.u.]:           [  -0.029754,    0.004494,   -0.001331]
  <i|r^2|0> [a.u.]:                    [   0.033948,    0.048341,    0.002902]

  V1^2 = 0.8679, V2^2 = 0.1321

  Important amplitudes:
     core i     occ j      vir a      vir b          v   
    ------------------------------------------------------
     5 (A) A              30 (A) A                -0.6142
     5 (A) B              30 (A) B                -0.6142
    ------------------------------------------------------
  ----------------------------------------------------------------------------


--------------------------------------------------------------------------------
  Time of ADC calculation:  CPU 3284.17 s  wall 2004.48 s
================================================================================
 
 --------------------------------------------------------------
 
                    Orbital Energies (a.u.)
 --------------------------------------------------------------
 
 Alpha MOs
 -- Occupied --
-26.564 -26.536 -26.522 -25.990 -11.739  -1.996  -1.889  -1.856
 -1.239  -1.135  -1.059  -1.052  -1.002  -0.883  -0.878  -0.861
 -0.836  -0.819  -0.350  -0.350  -0.333
 -- Virtual --
  0.048   0.222   0.420   0.435   0.571   0.617   0.667   0.697
  1.163   1.194   1.210   1.297   1.332   1.408   1.449   1.452
  1.488   1.494   1.504   1.560   1.593   1.721   1.754   1.811
  1.852   1.916   1.944   1.956   1.992   2.112   2.119   2.176
  2.189   2.204   2.291   2.339   2.398   2.399   2.423   2.435
  2.453   2.694   2.913   2.952   3.239   3.292   3.470   3.487
  3.519   4.131   4.498   5.094   5.119   5.311
 
 Beta MOs
 -- Occupied --
-26.564 -26.536 -26.522 -25.990 -11.739  -1.996  -1.889  -1.856
 -1.239  -1.135  -1.059  -1.052  -1.002  -0.883  -0.878  -0.861
 -0.836  -0.819  -0.350  -0.350  -0.333
 -- Virtual --
  0.048   0.222   0.420   0.435   0.571   0.617   0.667   0.697
  1.163   1.194   1.210   1.297   1.332   1.408   1.449   1.452
  1.488   1.494   1.504   1.560   1.593   1.721   1.754   1.811
  1.852   1.916   1.944   1.956   1.992   2.112   2.119   2.176
  2.189   2.204   2.291   2.339   2.398   2.399   2.423   2.435
  2.453   2.694   2.913   2.952   3.239   3.292   3.470   3.487
  3.519   4.131   4.498   5.094   5.119   5.311
 --------------------------------------------------------------
 
          Ground-State Mulliken Net Atomic Charges

     Atom                 Charge (a.u.)    Spin (a.u.)
  --------------------------------------------------------
      1 C                     1.083891       0.000000
      2 F                    -0.055423       0.000000
      3 F                    -0.097841       0.000000
      4 F                    -0.818956       0.000000
      5 F                    -0.111671       0.000000
  --------------------------------------------------------
  Sum of atomic charges =     0.000000
  Sum of spin   charges =     0.000000

 -----------------------------------------------------------------
                    Cartesian Multipole Moments
 -----------------------------------------------------------------
    Charge (ESU x 10^10)
                 0.0000
    Dipole Moment (Debye)
         X       4.5443      Y       8.4940      Z      -3.8975
       Tot      10.3918
    Quadrupole Moments (Debye-Ang)
        XX     -31.3305     XY      -0.4093     YY       6.5811
        XZ       5.0556     YZ      -4.2744     ZZ     -25.0229
    Octopole Moments (Debye-Ang^2)
       XXX      64.2354    XXY     -55.8400    XYY       7.1531
       YYY     -68.8655    XXZ      -7.9836    XYZ       3.7709
       YYZ      -8.6379    XZZ      19.8069    YZZ     -53.0238
       ZZZ      -3.8243
    Hexadecapole Moments (Debye-Ang^3)
      XXXX    -189.4938   XXXY      98.0047   XXYY    -168.5985
      XYYY      57.9022   YYYY    -600.8219   XXXZ      25.2104
      XXYZ       1.2711   XYYZ       8.0438   YYYZ      -3.8693
      XXZZ     -48.0471   XYZZ      30.6578   YYZZ    -157.1673
      XZZZ      17.2759   YZZZ      16.8400   ZZZZ     -92.5642
 -----------------------------------------------------------------
Archival summary:
1\1\tp-linux1\SP\HF\6-31G*\41\thomas\SunMar1919:28:352017SunMar1919:28:352017\0\\#,HF,6-31G*,\\0,1\C\F,1,1.16464\F,1,1.20876,2,120.437\F,1,1.21076,2,120.914,3,170.58,0\F,1,2.65049,2,104.379,3,-104.815,0\\HF=-435.390846\\@

 Total job time:  2008.48s(wall), 3295.73s(cpu) 
 Sun Mar 19 19:28:35 2017

        *************************************************************
        *                                                           *
        *  Thank you very much for using Q-Chem.  Have a nice day.  *
        *                                                           *
        *************************************************************


0 sent ACK to 0 
now end server 0 ... 
cleanup process ... done
