
Running Job 1 of 2 ddtraj3t1.inp
qchem ddtraj3t1.inp_4198.0 /scratch/qchem/qchem4198/ 1
/mnt/software/qchem/bin/mpi/mpirun_qchem -machinefile /mnt/software/qchem/bin/mpi/machines -np 1 /mnt/software/qchem/exe/qcprog.exe ddtraj3t1.inp_4198.0 /scratch/qchem/qchem4198/

Process 0 of 1 is on tp-linux1 - thread support 0
initial socket setup ...start
initial socket setup ...done 
now start server 0 ... 

cmd = ssh tp-linux1 /mnt/software/qchem/bin/get_hostid 769069821 > /scratch/qchem/qchem4198/lic.dat
                  Welcome to Q-Chem
     A Quantum Leap Into The Future Of Chemistry


 Q-Chem 4.3, Q-Chem, Inc., Pleasanton, CA (2015)

 Y. Shao,  Z. Gan,  E. Epifanovsky,  A. T. B. Gilbert,  M. Wormit,  
 J. Kussmann,  A. W. Lange,  A. Behn,  J. Deng,  X. Feng,  D. Ghosh,  
 M. Goldey,  P. R. Horn,  L. D. Jacobson,  I. Kaliman,  R. Z. Khaliullin,  
 T. Kus,  A. Landau,  J. Liu,  E. I. Proynov,  Y. M. Rhee,  R. M. Richard,  
 M. A. Rohrdanz,  R. P. Steele,  E. J. Sundstrom,  H. L. Woodcock III,  
 P. M. Zimmerman,  D. Zuev,  B. Albrecht,  E. Alguire,  B. Austin,  
 S. A. Baeppler,  G. J. O. Beran,  Y. A. Bernard,  E. Berquist,  
 K. Brandhorst,  K. B. Bravaya,  S. T. Brown,  D. Casanova,  C.-M. Chang,  
 Y. Chen,  S. H. Chien,  K. D. Closser,  D. L. Crittenden,  M. Diedenhofen,  
 R. A. DiStasio Jr.,  H. Do,  A. D. Dutoi,  R. G. Edgar,  P.-T. Fang,  
 S. Fatehi,  Q. Feng,  L. Fusti-Molnar,  A. Ghysels,  
 A. Golubeva-Zadorozhnaya,  J. Gomes,  A. Gunina,  M. W. D. Hanson-Heine,  
 P. H. P. Harbach,  A. W. Hauser,  E. G. Hohenstein,  Z. C. Holden,  K. Hui,  
 T.-C. Jagau,  H. Ji,  B. Kaduk,  K. Khistyaev,  Jaehoon Kim,  Jihan Kim,  
 R. A. King,  P. Klunzinger,  D. Kosenkov,  T. Kowalczyk,  C. M. Krauter,  
 K. U. Lao,  A. Laurent,  K. V. Lawler,  S. Lehtola,  S. V. Levchenko,  
 C. Y. Lin,  Y.-S. Lin,  F. Liu,  E. Livshits,  R. C. Lochan,  A. Luenser,  
 P. Manohar,  S. F. Manzer,  S.-P. Mao,  N. Mardirossian,  A. V. Marenich,  
 L. A. Martinez-Martinez,  S. A. Maurer,  N. J. Mayhall,  K. Nanda,  
 C. M. Oana,  R. Olivares-Amaya,  D. P. O'Neill,  J. A. Parkhill,  
 T. M. Perrine,  R. Peverati,  P. A. Pieniazek,  F. Plasser,  A. Prociuk,  
 D. R. Rehn,  E. Rosta,  N. J. Russ,  N. Sergueev,  S. M. Sharada,  
 S. Sharma,  D. W. Small,  A. Sodt,  T. Stauch,  T. Stein,  D. Stuck,  
 Y.-C. Su,  A. J. W. Thom,  T. Tsuchimochi,  L. Vogt,  O. Vydrov,  T. Wang,  
 M. A. Watson,  J. Wenzel,  A. White,  C. F. Williams,  V. Vanovschi,  
 S. Yeganeh,  S. R. Yost,  Z.-Q. You,  I. Y. Zhang,  X. Zhang,  Y. Zhao,  
 B. R. Brooks,  G. K. L. Chan,  D. M. Chipman,  C. J. Cramer,  
 W. A. Goddard III,  M. S. Gordon,  W. J. Hehre,  A. Klamt,  
 H. F. Schaefer III,  M. W. Schmidt,  C. D. Sherrill,  D. G. Truhlar,  
 A. Warshel,  X. Xu,  A. Aspuru-Guzik,  R. Baer,  A. T. Bell,  N. A. Besley,  
 J.-D. Chai,  A. Dreuw,  B. D. Dunietz,  T. R. Furlani,  S. R. Gwaltney,  
 C.-P. Hsu,  Y. Jung,  J. Kong,  D. S. Lambrecht,  W. Liang,  C. Ochsenfeld,  
 V. A. Rassolov,  L. V. Slipchenko,  J. E. Subotnik,  T. Van Voorhis,  
 J. M. Herbert,  A. I. Krylov,  P. M. W. Gill,  M. Head-Gordon

 Contributors to earlier versions of Q-Chem not listed above: 
 R. D. Adamson,  J. Baker,  E. F. C. Byrd,  A. K. Chakraborty,  C.-L. Cheng,  
 H. Dachsel,  R. J. Doerksen,  G. Hawkins,  A. Heyden,  S. Hirata,  
 G. Kedziora,  F. J. Keil,  C. Kelley,  P. P. Korambath,  W. Kurlancheek,  
 A. M. Lee,  M. S. Lee,  D. Liotard,  I. Lotan,  P. E. Maslen,  N. Nair,  
 D. Neuhauser,  R. Olson,  B. Peters,  J. Ritchie,  N. E. Schultz,  
 N. Shenvi,  A. C. Simmonett,  K. S. Thanthiriwatte,  Q. Wu,  W. Zhang

 Please cite Q-Chem as follows:
 Y. Shao et al., Mol. Phys. 113, 184-215 (2015)
 DOI: 10.1080/00268976.2014.952696

 Q-Chem 4.3.0 for Intel X86 Linux

 Parts of Q-Chem use Armadillo 5.200.1 (Boston Tea Smuggler).
 http://arma.sourceforge.net/

 Q-Chem begins on Sat Mar 18 07:42:28 2017  

Host: 
0

     Scratch files written to /scratch/qchem/qchem4198//
 Nov1815 1189b_ 19540  19532 5443   
 Parallel job on  1  processors
Processing $rem in /mnt/software/qchem/config/preferences.
 MEM_TOTAL  2000 

Checking the input file for inconsistencies... 	...done.

--------------------------------------------------------------
User input:
--------------------------------------------------------------
$comment
XAS calculation for the 2b valence excited for water using cvs-adc(2)-x + 6-311+G* basis set
job 1 - determination of HF orbitals
$end

$molecule
0 1
6  -0.732482  2.387299  -0.005507
9  0.610086  2.333514  0.007617
9  -1.124522  3.297665  0.775176
9  -1.116989  1.175233  0.418784
9  -1.130728  2.555831  -1.198478
$end

$rem
jobtype      sp
sym_ignore true
exchange     hf
basis        6-31G*
unrestricted true
$end

--------------------------------------------------------------
 ----------------------------------------------------------------
             Standard Nuclear Orientation (Angstroms)
    I     Atom           X                Y                Z
 ----------------------------------------------------------------
    1      C      -0.7324820000     2.3872990000    -0.0055070000
    2      F       0.6100860000     2.3335140000     0.0076170000
    3      F      -1.1245220000     3.2976650000     0.7751760000
    4      F      -1.1169890000     1.1752330000     0.4187840000
    5      F      -1.1307280000     2.5558310000    -1.1984780000
 ----------------------------------------------------------------
 Nuclear Repulsion Energy =   208.6473732221 hartrees
 There are       21 alpha and       21 beta electrons
 Requested basis set is 6-31G(d)
 There are 20 shells and 75 basis functions

 Total QAlloc Memory Limit   2000 MB
 Mega-Array Size        61 MB
 MEM_STATIC part        62 MB

                       Distance Matrix (Angstroms)
             C (  1)   F (  2)   F (  3)   F (  4)
   F (  2)  1.343709
   F (  3)  1.261716  2.127816
   F (  4)  1.340512  2.119779  2.152159
   F (  5)  1.268930  2.129442  2.108475  2.126447
 
 tim1(1): 
  0.000000000000000E+000
 tim1(2): 
  0.000000000000000E+000
 A cutoff of  1.0D-08 yielded    204 shell pairs
 There are      2979 function pairs
 
 -------------------------------------------------------
 OpenMP Integral Computing Module                       
 Release: version 1.0, May 2013, Q-Chem Inc. Pittsburgh 
 -------------------------------------------------------
 Integral Job Info:
 Integral job number is                      11
 Integral operator is                         1
 short-range coefficients                     0
 long-range coefficients              100000000
 Omega coefficients                           0
 if combine SR and LR in K                    0
 Integral screening is                        0
 Integral computing path is                   2
 max size of driver memory is            800000
 size of driver memory is                593474
 size of scratch memory is              2260544
 max col of scratch BK array               1296
 max len of scratch array in speh3          155
 max len of scratch index in speh4           18
 max int batch size is                      520
 min int batch size is                       52
 fixed nKL is                                52
 max L of basis functions is                  2
 order of int derivative is                   0
 number of shells is                         20
 number of basis is                          75
 number of cartesian basis is                75
 number of contracted shell pairs           204
 number of primitive shell pairs            982
 maxK2 (contraction) of shell pair           36
 max number of K2 of shell pair               1
 max number of CS2 of shell pair             29
 max number of PS2 of shell pair            180
 mem total for path MDJ                   21832
 -------------------------------------------------------
 Smallest overlap matrix eigenvalue = 1.75E-03

 Scale SEOQF with 1.000000e+00/1.000000e-01/1.000000e+00

 Standard Electronic Orientation quadrupole field applied
 Nucleus-field energy     =     0.0000000112 hartrees
 Guess from superposition of atomic densities
 Warning:  Energy on first SCF cycle will be non-variational
 An unrestricted Hartree-Fock SCF calculation will be
 performed using Pulay DIIS extrapolation
 SCF converges when DIIS error is below 1.0E-05
 using 8 threads for integral computing 
 ---------------------------------------
  Cycle       Energy         DIIS Error
 ---------------------------------------
    1    -436.6379338234      8.97E-02
    2    -435.4793788090      1.72E-02
    3    -435.5980453164      9.56E-03
    4    -435.6382685401      9.84E-04
    5    -435.6389809483      3.04E-04
    6    -435.6390764608      5.60E-05
    7    -435.6390803325      2.16E-05
    8    -435.6390806021      3.41E-06 Convergence criterion met
 ---------------------------------------
 <S^2> = 0.0000
 SCF time:  CPU 8.16 s  wall 1.99 s
 SCF   energy in the final basis set = -435.6390806021
 Total energy in the final basis set = -435.6390806021
 
 --------------------------------------------------------------
 
                    Orbital Energies (a.u.)
 --------------------------------------------------------------
 
 Alpha MOs
 -- Occupied --
-26.396 -26.389 -26.358 -26.354 -11.606  -1.820  -1.710  -1.673
 -1.646  -1.008  -0.901  -0.891  -0.884  -0.762  -0.759  -0.719
 -0.702  -0.691  -0.677  -0.669  -0.658
 -- Virtual --
  0.398   0.436   0.437   0.469   0.661   0.677   0.694   0.697
  1.285   1.292   1.297   1.300   1.313   1.413   1.567   1.571
  1.601   1.614   1.620   1.646   1.661   1.683   1.782   1.812
  1.859   2.079   2.082   2.090   2.112   2.132   2.190   2.222
  2.251   2.283   2.306   2.322   2.378   2.387   2.423   2.589
  2.864   2.917   3.030   3.162   3.163   3.357   3.428   3.440
  3.458   4.627   4.690   4.759   4.868   6.295
 
 Beta MOs
 -- Occupied --
-26.396 -26.389 -26.358 -26.354 -11.606  -1.820  -1.710  -1.673
 -1.646  -1.008  -0.901  -0.891  -0.884  -0.762  -0.759  -0.719
 -0.702  -0.691  -0.677  -0.669  -0.658
 -- Virtual --
  0.398   0.436   0.437   0.469   0.661   0.677   0.694   0.697
  1.285   1.292   1.297   1.300   1.313   1.413   1.567   1.571
  1.601   1.614   1.620   1.646   1.661   1.683   1.782   1.812
  1.859   2.079   2.082   2.090   2.112   2.132   2.190   2.222
  2.251   2.283   2.306   2.322   2.378   2.387   2.423   2.589
  2.864   2.917   3.030   3.162   3.163   3.357   3.428   3.440
  3.458   4.627   4.690   4.759   4.868   6.295
 --------------------------------------------------------------
 
          Ground-State Mulliken Net Atomic Charges

     Atom                 Charge (a.u.)    Spin (a.u.)
  --------------------------------------------------------
      1 C                     1.308378       0.000000
      2 F                    -0.369460       0.000000
      3 F                    -0.282455       0.000000
      4 F                    -0.364265       0.000000
      5 F                    -0.292199       0.000000
  --------------------------------------------------------
  Sum of atomic charges =     0.000000
  Sum of spin   charges =     0.000000

 -----------------------------------------------------------------
                    Cartesian Multipole Moments
 -----------------------------------------------------------------
    Charge (ESU x 10^10)
                 0.0000
    Dipole Moment (Debye)
         X      -0.4387      Y       0.5136      Z      -0.0954
       Tot       0.6822
    Quadrupole Moments (Debye-Ang)
        XX     -24.5582     XY      -1.5211     YY     -22.5838
        XZ       0.0781     YZ      -0.0645     ZZ     -24.6435
    Octopole Moments (Debye-Ang^2)
       XXX      49.9231    XXY     -57.0871    XYY      13.4337
       YYY    -166.4391    XXZ      -0.0986    XYZ      -0.0119
       YYZ      -0.6759    XZZ      17.7506    YZZ     -58.1231
       ZZZ       0.6835
    Hexadecapole Moments (Debye-Ang^3)
      XXXX    -145.1235   XXXY     116.5811   XXYY    -172.0696
      XYYY     113.3468   YYYY    -868.6194   XXXZ      -0.1301
      XXYZ       0.0854   XYYZ       0.1009   YYYZ      -4.5768
      XXZZ     -38.2886   XYZZ      41.9047   YYZZ    -162.7813
      XZZZ      -0.7605   YZZZ       1.9765   ZZZZ     -74.9711
 -----------------------------------------------------------------
Archival summary:
1\1\tp-linux1\SP\HF\6-31G*\41\thomas\SatMar1807:42:302017SatMar1807:42:302017\0\\#,HF,6-31G*,\\0,1\C\F,1,1.26172\F,1,1.26893,2,112.853\F,1,1.34051,2,111.557,3,123.283,0\F,1,1.34371,2,109.469,3,-121.776,0\\HF=-435.639081\\@

 Total job time:  2.31s(wall), 9.88s(cpu) 
 Sat Mar 18 07:42:30 2017

        *************************************************************
        *                                                           *
        *  Thank you very much for using Q-Chem.  Have a nice day.  *
        *                                                           *
        *************************************************************


0 sent ACK to 0 
now end server 0 ... 
cleanup process ... done

Running Job 2 of 2 ddtraj3t1.inp
qchem ddtraj3t1.inp_4198.1 /scratch/qchem/qchem4198/ 1
/mnt/software/qchem/bin/mpi/mpirun_qchem -machinefile /mnt/software/qchem/bin/mpi/machines -np 1 /mnt/software/qchem/exe/qcprog.exe ddtraj3t1.inp_4198.1 /scratch/qchem/qchem4198/

Process 0 of 1 is on tp-linux1 - thread support 0
initial socket setup ...start
initial socket setup ...done 
now start server 0 ... 

cmd = ssh tp-linux1 /mnt/software/qchem/bin/get_hostid 626856131 > /scratch/qchem/qchem4198/lic.dat
                  Welcome to Q-Chem
     A Quantum Leap Into The Future Of Chemistry


 Q-Chem 4.3, Q-Chem, Inc., Pleasanton, CA (2015)

 Y. Shao,  Z. Gan,  E. Epifanovsky,  A. T. B. Gilbert,  M. Wormit,  
 J. Kussmann,  A. W. Lange,  A. Behn,  J. Deng,  X. Feng,  D. Ghosh,  
 M. Goldey,  P. R. Horn,  L. D. Jacobson,  I. Kaliman,  R. Z. Khaliullin,  
 T. Kus,  A. Landau,  J. Liu,  E. I. Proynov,  Y. M. Rhee,  R. M. Richard,  
 M. A. Rohrdanz,  R. P. Steele,  E. J. Sundstrom,  H. L. Woodcock III,  
 P. M. Zimmerman,  D. Zuev,  B. Albrecht,  E. Alguire,  B. Austin,  
 S. A. Baeppler,  G. J. O. Beran,  Y. A. Bernard,  E. Berquist,  
 K. Brandhorst,  K. B. Bravaya,  S. T. Brown,  D. Casanova,  C.-M. Chang,  
 Y. Chen,  S. H. Chien,  K. D. Closser,  D. L. Crittenden,  M. Diedenhofen,  
 R. A. DiStasio Jr.,  H. Do,  A. D. Dutoi,  R. G. Edgar,  P.-T. Fang,  
 S. Fatehi,  Q. Feng,  L. Fusti-Molnar,  A. Ghysels,  
 A. Golubeva-Zadorozhnaya,  J. Gomes,  A. Gunina,  M. W. D. Hanson-Heine,  
 P. H. P. Harbach,  A. W. Hauser,  E. G. Hohenstein,  Z. C. Holden,  K. Hui,  
 T.-C. Jagau,  H. Ji,  B. Kaduk,  K. Khistyaev,  Jaehoon Kim,  Jihan Kim,  
 R. A. King,  P. Klunzinger,  D. Kosenkov,  T. Kowalczyk,  C. M. Krauter,  
 K. U. Lao,  A. Laurent,  K. V. Lawler,  S. Lehtola,  S. V. Levchenko,  
 C. Y. Lin,  Y.-S. Lin,  F. Liu,  E. Livshits,  R. C. Lochan,  A. Luenser,  
 P. Manohar,  S. F. Manzer,  S.-P. Mao,  N. Mardirossian,  A. V. Marenich,  
 L. A. Martinez-Martinez,  S. A. Maurer,  N. J. Mayhall,  K. Nanda,  
 C. M. Oana,  R. Olivares-Amaya,  D. P. O'Neill,  J. A. Parkhill,  
 T. M. Perrine,  R. Peverati,  P. A. Pieniazek,  F. Plasser,  A. Prociuk,  
 D. R. Rehn,  E. Rosta,  N. J. Russ,  N. Sergueev,  S. M. Sharada,  
 S. Sharma,  D. W. Small,  A. Sodt,  T. Stauch,  T. Stein,  D. Stuck,  
 Y.-C. Su,  A. J. W. Thom,  T. Tsuchimochi,  L. Vogt,  O. Vydrov,  T. Wang,  
 M. A. Watson,  J. Wenzel,  A. White,  C. F. Williams,  V. Vanovschi,  
 S. Yeganeh,  S. R. Yost,  Z.-Q. You,  I. Y. Zhang,  X. Zhang,  Y. Zhao,  
 B. R. Brooks,  G. K. L. Chan,  D. M. Chipman,  C. J. Cramer,  
 W. A. Goddard III,  M. S. Gordon,  W. J. Hehre,  A. Klamt,  
 H. F. Schaefer III,  M. W. Schmidt,  C. D. Sherrill,  D. G. Truhlar,  
 A. Warshel,  X. Xu,  A. Aspuru-Guzik,  R. Baer,  A. T. Bell,  N. A. Besley,  
 J.-D. Chai,  A. Dreuw,  B. D. Dunietz,  T. R. Furlani,  S. R. Gwaltney,  
 C.-P. Hsu,  Y. Jung,  J. Kong,  D. S. Lambrecht,  W. Liang,  C. Ochsenfeld,  
 V. A. Rassolov,  L. V. Slipchenko,  J. E. Subotnik,  T. Van Voorhis,  
 J. M. Herbert,  A. I. Krylov,  P. M. W. Gill,  M. Head-Gordon

 Contributors to earlier versions of Q-Chem not listed above: 
 R. D. Adamson,  J. Baker,  E. F. C. Byrd,  A. K. Chakraborty,  C.-L. Cheng,  
 H. Dachsel,  R. J. Doerksen,  G. Hawkins,  A. Heyden,  S. Hirata,  
 G. Kedziora,  F. J. Keil,  C. Kelley,  P. P. Korambath,  W. Kurlancheek,  
 A. M. Lee,  M. S. Lee,  D. Liotard,  I. Lotan,  P. E. Maslen,  N. Nair,  
 D. Neuhauser,  R. Olson,  B. Peters,  J. Ritchie,  N. E. Schultz,  
 N. Shenvi,  A. C. Simmonett,  K. S. Thanthiriwatte,  Q. Wu,  W. Zhang

 Please cite Q-Chem as follows:
 Y. Shao et al., Mol. Phys. 113, 184-215 (2015)
 DOI: 10.1080/00268976.2014.952696

 Q-Chem 4.3.0 for Intel X86 Linux

 Parts of Q-Chem use Armadillo 5.200.1 (Boston Tea Smuggler).
 http://arma.sourceforge.net/

 Q-Chem begins on Sat Mar 18 07:42:33 2017  

Host: 
0

     Scratch files written to /scratch/qchem/qchem4198//
 Nov1815 1189b_ 19540  19532 5443   
 Parallel job on  1  processors
Processing $rem in /mnt/software/qchem/config/preferences.
 MEM_TOTAL  2000 

Checking the input file for inconsistencies... 	...done.

--------------------------------------------------------------
User input:
--------------------------------------------------------------

$comment
job3 - cvs-adc(2) calculation
$end

$molecule
read
$end

$rem
mem_total 3000
mem_static 1500
sym_ignore true
scf_guess read
method cvs-adc(2)
basis 6-31G*
ee_singlets 20
cc_rest_occ 5                  !only excitations from the lowest N orbitals
unrestricted  true
max_scf_cycles 200
$end
--------------------------------------------------------------
 ----------------------------------------------------------------
             Standard Nuclear Orientation (Angstroms)
    I     Atom           X                Y                Z
 ----------------------------------------------------------------
    1      C      -0.7324820000     2.3872990000    -0.0055070000
    2      F       0.6100860000     2.3335140000     0.0076170000
    3      F      -1.1245220000     3.2976650000     0.7751760000
    4      F      -1.1169890000     1.1752330000     0.4187840000
    5      F      -1.1307280000     2.5558310000    -1.1984780000
 ----------------------------------------------------------------
 Nuclear Repulsion Energy =   208.6473732221 hartrees
 There are       21 alpha and       21 beta electrons
 Requested basis set is 6-31G(d)
 There are 20 shells and 75 basis functions

 Total QAlloc Memory Limit   3000 MB
 Mega-Array Size      1467 MB
 MEM_STATIC part      1500 MB

                       Distance Matrix (Angstroms)
             C (  1)   F (  2)   F (  3)   F (  4)
   F (  2)  1.343709
   F (  3)  1.261716  2.127816
   F (  4)  1.340512  2.119779  2.152159
   F (  5)  1.268930  2.129442  2.108475  2.126447
 
 tim1(1): 
  0.000000000000000E+000
 tim1(2): 
  0.000000000000000E+000
 A cutoff of  1.0D-11 yielded    204 shell pairs
 There are      2979 function pairs
 
 -------------------------------------------------------
 OpenMP Integral Computing Module                       
 Release: version 1.0, May 2013, Q-Chem Inc. Pittsburgh 
 -------------------------------------------------------
 Integral Job Info:
 Integral job number is                      11
 Integral operator is                         1
 short-range coefficients                     0
 long-range coefficients              100000000
 Omega coefficients                           0
 if combine SR and LR in K                    0
 Integral screening is                        0
 Integral computing path is                   2
 max size of driver memory is            800000
 size of driver memory is                593474
 size of scratch memory is              2260544
 max col of scratch BK array               1296
 max len of scratch array in speh3          155
 max len of scratch index in speh4           18
 max int batch size is                      520
 min int batch size is                       52
 fixed nKL is                                52
 max L of basis functions is                  2
 order of int derivative is                   0
 number of shells is                         20
 number of basis is                          75
 number of cartesian basis is                75
 number of contracted shell pairs           204
 number of primitive shell pairs           1074
 maxK2 (contraction) of shell pair           36
 max number of K2 of shell pair               1
 max number of CS2 of shell pair             37
 max number of PS2 of shell pair            222
 mem total for path MDJ                   21832
 -------------------------------------------------------
 Smallest overlap matrix eigenvalue = 1.75E-03

 Scale SEOQF with 1.000000e+00/1.000000e-01/1.000000e+00

 Standard Electronic Orientation quadrupole field applied
 Nucleus-field energy     =     0.0000000112 hartrees
 Guess MOs from SCF MO coefficient file
 Reading MOs from coefficient file
 Reading MOs from coefficient file
 An unrestricted Hartree-Fock SCF calculation will be
 performed using Pulay DIIS extrapolation
 SCF converges when DIIS error is below 1.0E-08
 using 8 threads for integral computing 
 ---------------------------------------
  Cycle       Energy         DIIS Error
 ---------------------------------------
    1    -435.6390805479      6.64E-07
    2    -435.6390805486      2.83E-07
    3    -435.6390805487      1.03E-07
    4    -435.6390805488      1.69E-08
    5    -435.6390805488      3.78E-09 Convergence criterion met
 ---------------------------------------
 <S^2> = 0.0000
 SCF time:  CPU 6.23 s  wall 1.33 s
 SCF   energy in the final basis set = -435.6390805488
 Total energy in the final basis set = -435.6390805488
================================================================================
|                                                                              |
|                                 A D C  M A N                                 |
|                                                                              |
 ------------------------------------------------------------------------------ 
|                                                                              |
| Components:                                                                  |
|                                                                              |
| - libvmm - 1.2-release                                                       |
|   Authors:                                                                   |
|   Evgeny Epifanovsky, Ilya Kaliman                                           |
|                                                                              |
| - libtensor - 2.4-trunk                                                      |
|   Authors:                                                                   |
|   Evgeny Epifanovsky, Michael Wormit, Dmitry Zuev, Sam Manzer                |
|                                                                              |
| - libwfa - 1.1-beta                                                          |
|   Authors:                                                                   |
|   Felix Plasser, Stefanie Baeppler, Benjamin Thomitzni, Michael Wormit       |
|                                                                              |
| - libadc - 1.0-beta                                                          |
|   Authors:                                                                   |
|   Michael Wormit, Philipp H. P. Harbach, Caroline Krauter, Dirk Rehn,        |
|   Matthias Schneider, Jan Wenzel                                             |
|                                                                              |
| - adcman - 2.4-beta                                                          |
|   Authors:                                                                   |
|   Michael Wormit, Philipp H. P. Harbach, Caroline Krauter, Dirk Rehn,        |
|   Jan Wenzel, Andreas Dreuw                                                  |
|                                                                              |
| Authors of earlier versions of ADCMAN:                                       |
| Andreas Dreuw, Jan Hendrik Starcke, Dirk Rehn, Michael Wormit                |
|                                                                              |
================================================================================

 
 Alpha MOs, Unrestricted
 -- Occupied --                  
-26.396 -26.389 -26.358 -26.354 -11.606  -1.820  -1.710  -1.673
  1 A     2 A     3 A     4 A     5 A     6 A     7 A     8 A                  
 -1.646  -1.008  -0.901  -0.891  -0.884  -0.762  -0.759  -0.719
  9 A    10 A    11 A    12 A    13 A    14 A    15 A    16 A                  
 -0.702  -0.691  -0.677  -0.669  -0.658
 17 A    18 A    19 A    20 A    21 A                                          
 -- Virtual --                   
  0.398   0.436   0.437   0.469   0.661   0.677   0.694   0.697
 22 A    23 A    24 A    25 A    26 A    27 A    28 A    29 A                  
  1.285   1.292   1.297   1.300   1.313   1.413   1.567   1.571
 30 A    31 A    32 A    33 A    34 A    35 A    36 A    37 A                  
  1.601   1.614   1.620   1.646   1.661   1.683   1.782   1.812
 38 A    39 A    40 A    41 A    42 A    43 A    44 A    45 A                  
  1.859   2.079   2.082   2.090   2.112   2.132   2.190   2.222
 46 A    47 A    48 A    49 A    50 A    51 A    52 A    53 A                  
  2.251   2.283   2.306   2.322   2.378   2.387   2.423   2.589
 54 A    55 A    56 A    57 A    58 A    59 A    60 A    61 A                  
  2.864   2.917   3.030   3.162   3.163   3.357   3.428   3.440
 62 A    63 A    64 A    65 A    66 A    67 A    68 A    69 A                  
  3.458   4.627   4.690   4.759   4.868   6.295
 70 A    71 A    72 A    73 A    74 A    75 A                                  
 
 Beta MOs, Unrestricted
 -- Occupied --                  
-26.396 -26.389 -26.358 -26.354 -11.606  -1.820  -1.710  -1.673
  1 A     2 A     3 A     4 A     5 A     6 A     7 A     8 A                  
 -1.646  -1.008  -0.901  -0.891  -0.884  -0.762  -0.759  -0.719
  9 A    10 A    11 A    12 A    13 A    14 A    15 A    16 A                  
 -0.702  -0.691  -0.677  -0.669  -0.658
 17 A    18 A    19 A    20 A    21 A                                          
 -- Virtual --                   
  0.398   0.436   0.437   0.469   0.661   0.677   0.694   0.697
 22 A    23 A    24 A    25 A    26 A    27 A    28 A    29 A                  
  1.285   1.292   1.297   1.300   1.313   1.413   1.567   1.571
 30 A    31 A    32 A    33 A    34 A    35 A    36 A    37 A                  
  1.601   1.614   1.620   1.646   1.661   1.683   1.782   1.812
 38 A    39 A    40 A    41 A    42 A    43 A    44 A    45 A                  
  1.859   2.079   2.082   2.090   2.112   2.132   2.190   2.222
 46 A    47 A    48 A    49 A    50 A    51 A    52 A    53 A                  
  2.251   2.283   2.306   2.322   2.378   2.387   2.423   2.589
 54 A    55 A    56 A    57 A    58 A    59 A    60 A    61 A                  
  2.864   2.917   3.030   3.162   3.163   3.357   3.428   3.440
 62 A    63 A    64 A    65 A    66 A    67 A    68 A    69 A                  
  3.458   4.627   4.690   4.759   4.868   6.295
 70 A    71 A    72 A    73 A    74 A    75 A                                  
 

--------------------------------------------------------------------------------
                                   HF Summary                                   
--------------------------------------------------------------------------------
  Energy:                                                 -435.6390805488 a.u.
  Dip. moment [a.u.]:                  [ -55.109964,  186.094654,    0.027807]
  Total dipole [Debye]:                                             493.310648
  <r^2> [a.u.]:                        [ 163.550293,  917.752861,   89.437317]
  Total <r^2> [a.u.]:                                              1170.740471
--------------------------------------------------------------------------------

--------------------------------------------------------------------------------
                                 MP(2) Summary                                  
--------------------------------------------------------------------------------
  Energy contribution:                                      -0.7990461672 a.u.
  Total energy:                                           -436.4381267160 a.u.
  Dip. moment [a.u.]:                  [ -55.127711,  186.114192,    0.025142]
  Total dipole [Debye]:                                             493.371072
  <r^2> [a.u.]:                        [ 163.534844,  917.846277,   89.388750]
  Total <r^2> [a.u.]:                                              1170.769871
--------------------------------------------------------------------------------
  Starting Davidson ... 
--------------------------------------------------------------------------------
   It NVec Conv  Avg. Norm  Max. Norm  Conv. states           Remark
--------------------------------------------------------------------------------
        20    0  2.112e-01  1.051e+00 11.2306 n n n n n n n n Guess.
    1   40    0  6.911e-02  8.950e-01 11.0440 n n n n n n n n 
    2   60    0  1.453e-02  1.937e-01 11.0421 n n n n n n n n 
    3   80    0  3.423e-03  3.838e-02 11.0421 n n n n n n n n 
    4  100    0  1.953e-03  2.254e-02 11.0421 n n n n n n n n 
    5   40    0  1.024e-03  1.263e-02 11.0421 n n n n n n n n Subspace collapsed.
    6   60    0  1.099e-03  1.499e-02 11.0421 n n n n n n n n 
    7   80    0  8.242e-04  1.114e-02 11.0421 n n n n n n n n 
    8  100    2  6.449e-04  9.027e-03 11.0421 y y n n n n n n 
    9   40    7  2.833e-04  4.033e-03 11.0421 y y y y y y y n Subspace collapsed.
   10   60    8  2.432e-04  3.370e-03 11.0421 y y y y y y y y 
   11   80    9  1.293e-04  1.716e-03 11.0421 y y y y y y y y 
   12  100   16  1.349e-04  1.705e-03 11.0421 y y y y y y y y 
   13   40   16  8.206e-05  1.048e-03 11.0421 y y y y y y y y Subspace collapsed.
   14   60   16  1.035e-04  1.415e-03 11.0421 y y y y y y y y 
   15   80   16  6.898e-05  9.696e-04 11.0421 y y y y y y y y 
   16  100   16  7.066e-05  9.144e-04 11.0421 y y y y y y y y 
   17   40   16  3.264e-05  4.126e-04 11.0421 y y y y y y y y Subspace collapsed.
   18   41   16  3.258e-05  4.113e-04 11.0421 y y y y y y y y 
   19   58   16  3.174e-05  3.787e-04 11.0421 y y y y y y y y 
   20   72   16  1.753e-05  2.333e-04 11.0421 y y y y y y y y 
   21   85   16  1.646e-05  2.112e-04 11.0421 y y y y y y y y 
   22   97   16  1.695e-05  2.021e-04 11.0421 y y y y y y y y 
   23  100   16  1.691e-05  2.014e-04 11.0421 y y y y y y y y 
   24   32   16  7.257e-06  9.145e-05 11.0421 y y y y y y y y Subspace collapsed.
   25   44   16  5.801e-06  7.488e-05 11.0421 y y y y y y y y 
   26   56   16  4.959e-06  6.659e-05 11.0421 y y y y y y y y 
   27   57   16  4.974e-06  6.663e-05 11.0421 y y y y y y y y 
   28   58   16  4.992e-06  6.640e-05 11.0421 y y y y y y y y 
   29   59   16  4.996e-06  6.644e-05 11.0421 y y y y y y y y 
   30   60   16  5.014e-06  6.664e-05 11.0421 y y y y y y y y 
   31   60   16  5.014e-06  6.664e-05 11.0421 y y y y y y y y 
   32   79   16  4.288e-06  5.812e-05 11.0421 y y y y y y y y 
   33   79   16  4.288e-06  5.812e-05 11.0421 y y y y y y y y 
   34   81   16  4.261e-06  5.732e-05 11.0421 y y y y y y y y 
   35   81   16  4.261e-06  5.732e-05 11.0421 y y y y y y y y 
   36   81   16  4.261e-06  5.732e-05 11.0421 y y y y y y y y 
   37  100   16  4.463e-06  6.725e-05 11.0421 y y y y y y y y 
   38   24   16  2.245e-06  3.104e-05 11.0421 y y y y y y y y Subspace collapsed.
   39   24   16  2.245e-06  3.104e-05 11.0421 y y y y y y y y 
   40   25   16  2.242e-06  3.097e-05 11.0421 y y y y y y y y 
   41   29   16  1.960e-06  2.876e-05 11.0421 y y y y y y y y 
   42   29   16  1.960e-06  2.876e-05 11.0421 y y y y y y y y 
   43   32   16  1.958e-06  2.877e-05 11.0421 y y y y y y y y 
   44   33   16  1.958e-06  2.877e-05 11.0421 y y y y y y y y 
   45   34   16  1.957e-06  2.880e-05 11.0421 y y y y y y y y 
   46   39   16  1.513e-06  2.275e-05 11.0421 y y y y y y y y 
   47   40   16  1.514e-06  2.275e-05 11.0421 y y y y y y y y 
   48   40   16  1.514e-06  2.275e-05 11.0421 y y y y y y y y 
   49   42   16  1.514e-06  2.273e-05 11.0421 y y y y y y y y 
   50   42   16  1.514e-06  2.273e-05 11.0421 y y y y y y y y 
   51   44   16  1.515e-06  2.279e-05 11.0421 y y y y y y y y 
   52   44   16  1.515e-06  2.279e-05 11.0421 y y y y y y y y 
   53   44   16  1.515e-06  2.279e-05 11.0421 y y y y y y y y 
   54   64   16  1.324e-06  1.867e-05 11.0421 y y y y y y y y 
   55   68   16  1.461e-06  2.258e-05 11.0421 y y y y y y y y 
   56   72   16  1.030e-06  1.657e-05 11.0421 y y y y y y y y 
   57   76   16  5.730e-07  9.927e-06 11.0421 y y y y y y y y 
   58   80   17  3.476e-07  6.193e-06 11.0421 y y y y y y y y 
   59   84   18  2.029e-07  3.711e-06 11.0421 y y y y y y y y 
--------------------------------------------------------------------------------
  Davidson Summary: 
 ------------------------------------------------------------
  State  0: excitation energy =  11.0421 a.u.   (converged)
  State  1: excitation energy =  11.0801 a.u.   (converged)
  State  2: excitation energy =  11.1197 a.u.   (converged)
  State  3: excitation energy =  11.1266 a.u.   (converged)
  State  4: excitation energy =  11.1618 a.u.   (converged)
  State  5: excitation energy =  11.1741 a.u.   (converged)
  State  6: excitation energy =  11.2061 a.u.   (converged)
  State  7: excitation energy =  11.2664 a.u.   (converged)
  State  8: excitation energy =  11.5004 a.u.   (converged)
  State  9: excitation energy =  11.5204 a.u.   (converged)
  State 10: excitation energy =  11.5284 a.u.   (converged)
  State 11: excitation energy =  11.5307 a.u.   (converged)
  State 12: excitation energy =  11.5350 a.u.   (converged)
  State 13: excitation energy =  11.5447 a.u.   (converged)
  State 14: excitation energy =  11.5458 a.u.   (converged)
  State 15: excitation energy =  11.5606 a.u.   (converged)
  State 16: excitation energy =  12.1320 a.u.   (not converged)
  State 17: excitation energy =  12.1329 a.u.   (converged)
  State 18: excitation energy =  12.1378 a.u.   (not converged)
  State 19: excitation energy =  12.1386 a.u.   (converged)
 ------------------------------------------------------------


--------------------------------------------------------------------------------
                             Excited State Summary
--------------------------------------------------------------------------------

  Excited state  1 (A)                                             [converged]
  ----------------------------------------------------------------------------
  Term symbol:  2 (-) A                                     R^2 =  4.93897e-14

  Total energy:                                           -425.3960511473 a.u.
  Excitation energy:                                             300.470157 eV

  Osc. strength:                                                      0.000000
  Trans. dip. moment [a.u.]:           [   0.000000,    0.000000,   -0.000000]
  <i|r^2|0> [a.u.]:                    [  -0.000000,    0.000000,   -0.000000]

  V1^2 = 0.9563, V2^2 = 0.0437

  Important amplitudes:
     core i     occ j      vir a      vir b          v   
    ------------------------------------------------------
     5 (A) B              22 (A) B                 0.6085
     5 (A) A              22 (A) A                -0.6085
    ------------------------------------------------------
  ----------------------------------------------------------------------------


  Excited state  2 (A)                                             [converged]
  ----------------------------------------------------------------------------
  Term symbol:  3 (-) A                                     R^2 =  1.17167e-13

  Total energy:                                           -425.3580279601 a.u.
  Excitation energy:                                             301.504821 eV

  Osc. strength:                                                      0.000000
  Trans. dip. moment [a.u.]:           [  -0.000000,    0.000000,   -0.000000]
  <i|r^2|0> [a.u.]:                    [   0.000000,    0.000000,   -0.000000]

  V1^2 = 0.9553, V2^2 = 0.0447

  Important amplitudes:
     core i     occ j      vir a      vir b          v   
    ------------------------------------------------------
     5 (A) A              24 (A) A                -0.5144
     5 (A) B              24 (A) B                 0.5144
    ------------------------------------------------------
  ----------------------------------------------------------------------------


  Excited state  3 (A)                                             [converged]
  ----------------------------------------------------------------------------
  Term symbol:  4 (-) A                                     R^2 =  7.66034e-14

  Total energy:                                           -425.3183788294 a.u.
  Excitation energy:                                             302.583729 eV

  Osc. strength:                                                      0.122243
  Trans. dip. moment [a.u.]:           [   0.109336,    0.061698,   -0.026999]
  <i|r^2|0> [a.u.]:                    [  -0.308943,    0.561422,    0.001134]

  V1^2 = 0.9496, V2^2 = 0.0504

  Important amplitudes:
     core i     occ j      vir a      vir b          v   
    ------------------------------------------------------
     5 (A) A              22 (A) A                 0.6296
     5 (A) B              22 (A) B                 0.6296
    ------------------------------------------------------
  ----------------------------------------------------------------------------


  Excited state  4 (A)                                             [converged]
  ----------------------------------------------------------------------------
  Term symbol:  5 (-) A                                     R^2 =  7.47517e-14

  Total energy:                                           -425.3115750499 a.u.
  Excitation energy:                                             302.768869 eV

  Osc. strength:                                                      0.000000
  Trans. dip. moment [a.u.]:           [  -0.000000,    0.000000,    0.000000]
  <i|r^2|0> [a.u.]:                    [   0.000000,    0.000000,   -0.000000]

  V1^2 = 0.9556, V2^2 = 0.0444

  Important amplitudes:
     core i     occ j      vir a      vir b          v   
    ------------------------------------------------------
     5 (A) B              25 (A) B                 0.5538
     5 (A) A              25 (A) A                -0.5538
    ------------------------------------------------------
  ----------------------------------------------------------------------------


  Excited state  5 (A)                                             [converged]
  ----------------------------------------------------------------------------
  Term symbol:  6 (-) A                                     R^2 =  1.16358e-13

  Total energy:                                           -425.2762797440 a.u.
  Excitation energy:                                             303.729303 eV

  Osc. strength:                                                      0.120097
  Trans. dip. moment [a.u.]:           [   0.066494,   -0.094937,    0.052009]
  <i|r^2|0> [a.u.]:                    [  -0.182241,   -0.853002,    0.010382]

  V1^2 = 0.9485, V2^2 = 0.0515

  Important amplitudes:
     core i     occ j      vir a      vir b          v   
    ------------------------------------------------------
     5 (A) A              24 (A) A                -0.5565
     5 (A) B              24 (A) B                -0.5565
    ------------------------------------------------------
  ----------------------------------------------------------------------------


  Excited state  6 (A)                                             [converged]
  ----------------------------------------------------------------------------
  Term symbol:  7 (-) A                                     R^2 =  1.80715e-13

  Total energy:                                           -425.2640165780 a.u.
  Excitation energy:                                             304.063001 eV

  Osc. strength:                                                      0.000000
  Trans. dip. moment [a.u.]:           [   0.000000,   -0.000000,    0.000000]
  <i|r^2|0> [a.u.]:                    [  -0.000000,   -0.000000,    0.000000]

  V1^2 = 0.9350, V2^2 = 0.0650

  Important amplitudes:
     core i     occ j      vir a      vir b          v   
    ------------------------------------------------------
     5 (A) A              23 (A) A                -0.5150
     5 (A) B              23 (A) B                 0.5150
    ------------------------------------------------------
  ----------------------------------------------------------------------------


  Excited state  7 (A)                                             [converged]
  ----------------------------------------------------------------------------
  Term symbol:  8 (-) A                                     R^2 =  8.82923e-14

  Total energy:                                           -425.2320103800 a.u.
  Excitation energy:                                             304.933934 eV

  Osc. strength:                                                      0.121261
  Trans. dip. moment [a.u.]:           [   0.005048,   -0.059155,   -0.112724]
  <i|r^2|0> [a.u.]:                    [  -0.013890,   -0.529818,   -0.000388]

  V1^2 = 0.9477, V2^2 = 0.0523

  Important amplitudes:
     core i     occ j      vir a      vir b          v   
    ------------------------------------------------------
     5 (A) A              25 (A) A                -0.5855
     5 (A) B              25 (A) B                -0.5855
    ------------------------------------------------------
  ----------------------------------------------------------------------------


  Excited state  8 (A)                                             [converged]
  ----------------------------------------------------------------------------
  Term symbol:  9 (-) A                                     R^2 =  5.00537e-14

  Total energy:                                           -425.1717313385 a.u.
  Excitation energy:                                             306.574210 eV

  Osc. strength:                                                      0.002204
  Trans. dip. moment [a.u.]:           [   0.005931,   -0.013608,    0.008545]
  <i|r^2|0> [a.u.]:                    [  -0.043321,   -0.148357,   -0.023234]

  V1^2 = 0.9173, V2^2 = 0.0827

  Important amplitudes:
     core i     occ j      vir a      vir b          v   
    ------------------------------------------------------
     5 (A) A              23 (A) A                -0.5744
     5 (A) B              23 (A) B                -0.5744
    ------------------------------------------------------
  ----------------------------------------------------------------------------


  Excited state  9 (A)                                             [converged]
  ----------------------------------------------------------------------------
  Term symbol:  10 (-) A                                    R^2 =  1.54385e-13

  Total energy:                                           -424.9376877222 a.u.
  Excitation energy:                                             312.942860 eV

  Osc. strength:                                                      0.000000
  Trans. dip. moment [a.u.]:           [   0.000000,   -0.000000,    0.000000]
  <i|r^2|0> [a.u.]:                    [  -0.000000,   -0.000000,    0.000000]

  V1^2 = 0.8975, V2^2 = 0.1025

  Important amplitudes:
     core i     occ j      vir a      vir b          v   
    ------------------------------------------------------
     5 (A) A              28 (A) A                 0.4942
     5 (A) B              28 (A) B                -0.4942
    ------------------------------------------------------
  ----------------------------------------------------------------------------


  Excited state 10 (A)                                             [converged]
  ----------------------------------------------------------------------------
  Term symbol:  11 (-) A                                    R^2 =  1.06921e-13

  Total energy:                                           -424.9177746278 a.u.
  Excitation energy:                                             313.484723 eV

  Osc. strength:                                                      0.000000
  Trans. dip. moment [a.u.]:           [  -0.000000,   -0.000000,   -0.000000]
  <i|r^2|0> [a.u.]:                    [   0.000000,   -0.000000,    0.000000]

  V1^2 = 0.8913, V2^2 = 0.1087

  Important amplitudes:
     core i     occ j      vir a      vir b          v   
    ------------------------------------------------------
     5 (A) B              26 (A) B                 0.5913
     5 (A) A              26 (A) A                -0.5913
    ------------------------------------------------------
  ----------------------------------------------------------------------------


  Excited state 11 (A)                                             [converged]
  ----------------------------------------------------------------------------
  Term symbol:  12 (-) A                                    R^2 =  8.56118e-14

  Total energy:                                           -424.9097747270 a.u.
  Excitation energy:                                             313.702412 eV

  Osc. strength:                                                      0.018371
  Trans. dip. moment [a.u.]:           [   0.038818,   -0.028322,    0.009022]
  <i|r^2|0> [a.u.]:                    [  -0.123127,   -0.270970,   -0.014405]

  V1^2 = 0.9007, V2^2 = 0.0993

  Important amplitudes:
     core i     occ j      vir a      vir b          v   
    ------------------------------------------------------
     5 (A) A              28 (A) A                -0.4788
     5 (A) B              28 (A) B                -0.4788
    ------------------------------------------------------
  ----------------------------------------------------------------------------


  Excited state 12 (A)                                             [converged]
  ----------------------------------------------------------------------------
  Term symbol:  13 (-) A                                    R^2 =  3.53841e-13

  Total energy:                                           -424.9074766279 a.u.
  Excitation energy:                                             313.764946 eV

  Osc. strength:                                                      0.000000
  Trans. dip. moment [a.u.]:           [  -0.000000,    0.000000,    0.000000]
  <i|r^2|0> [a.u.]:                    [   0.000000,    0.000000,    0.000000]

  V1^2 = 0.8894, V2^2 = 0.1106

  Important amplitudes:
     core i     occ j      vir a      vir b          v   
    ------------------------------------------------------
     5 (A) B              29 (A) B                -0.5059
     5 (A) A              29 (A) A                 0.5059
    ------------------------------------------------------
  ----------------------------------------------------------------------------


  Excited state 13 (A)                                             [converged]
  ----------------------------------------------------------------------------
  Term symbol:  14 (-) A                                    R^2 =  2.96901e-13

  Total energy:                                           -424.9031468764 a.u.
  Excitation energy:                                             313.882765 eV

  Osc. strength:                                                      0.025796
  Trans. dip. moment [a.u.]:           [  -0.039464,   -0.039485,    0.015428]
  <i|r^2|0> [a.u.]:                    [   0.105791,   -0.359430,   -0.003224]

  V1^2 = 0.8937, V2^2 = 0.1063

  Important amplitudes:
     core i     occ j      vir a      vir b          v   
    ------------------------------------------------------
     5 (A) A              26 (A) A                 0.5963
     5 (A) B              26 (A) B                 0.5963
    ------------------------------------------------------
  ----------------------------------------------------------------------------


  Excited state 14 (A)                                             [converged]
  ----------------------------------------------------------------------------
  Term symbol:  15 (-) A                                    R^2 =  7.01463e-13

  Total energy:                                           -424.8934182972 a.u.
  Excitation energy:                                             314.147493 eV

  Osc. strength:                                                      0.000000
  Trans. dip. moment [a.u.]:           [   0.000000,   -0.000000,   -0.000000]
  <i|r^2|0> [a.u.]:                    [  -0.000000,   -0.000000,   -0.000000]

  V1^2 = 0.8893, V2^2 = 0.1107

  Important amplitudes:
     core i     occ j      vir a      vir b          v   
    ------------------------------------------------------
     5 (A) A              27 (A) A                 0.5243
     5 (A) B              27 (A) B                -0.5243
    ------------------------------------------------------
  ----------------------------------------------------------------------------


  Excited state 15 (A)                                             [converged]
  ----------------------------------------------------------------------------
  Term symbol:  16 (-) A                                    R^2 =  4.15616e-13

  Total energy:                                           -424.8923226380 a.u.
  Excitation energy:                                             314.177307 eV

  Osc. strength:                                                      0.028231
  Trans. dip. moment [a.u.]:           [   0.004696,    0.015653,    0.058314]
  <i|r^2|0> [a.u.]:                    [  -0.010178,    0.143397,    0.001978]

  V1^2 = 0.8925, V2^2 = 0.1075

  Important amplitudes:
     core i     occ j      vir a      vir b          v   
    ------------------------------------------------------
     5 (A) A              29 (A) A                -0.5566
     5 (A) B              29 (A) B                -0.5566
    ------------------------------------------------------
  ----------------------------------------------------------------------------


  Excited state 16 (A)                                             [converged]
  ----------------------------------------------------------------------------
  Term symbol:  17 (-) A                                    R^2 =  1.14707e-13

  Total energy:                                           -424.8774993705 a.u.
  Excitation energy:                                             314.580669 eV

  Osc. strength:                                                      0.009465
  Trans. dip. moment [a.u.]:           [  -0.020152,    0.028670,    0.000206]
  <i|r^2|0> [a.u.]:                    [   0.041966,    0.245055,   -0.013456]

  V1^2 = 0.8934, V2^2 = 0.1066

  Important amplitudes:
     core i     occ j      vir a      vir b          v   
    ------------------------------------------------------
     5 (A) A              27 (A) A                -0.5063
     5 (A) B              27 (A) B                -0.5063
    ------------------------------------------------------
  ----------------------------------------------------------------------------


  Excited state 17 (A)                                         [not converged]
  ----------------------------------------------------------------------------
  Term symbol:  18 (-) A                                    R^2 =  1.51323e-06

  Total energy:                                           -424.3060943193 a.u.
  Excitation energy:                                             330.129391 eV


  V1^2 = 0.8866, V2^2 = 0.1134

  Important amplitudes:
     core i     occ j      vir a      vir b          v   
    ------------------------------------------------------
     5 (A) B              31 (A) B                 0.5103
     5 (A) A              31 (A) A                -0.5103
    ------------------------------------------------------
  ----------------------------------------------------------------------------


  Excited state 18 (A)                                             [converged]
  ----------------------------------------------------------------------------
  Term symbol:  19 (-) A                                    R^2 =  2.18437e-07

  Total energy:                                           -424.3051818269 a.u.
  Excitation energy:                                             330.154221 eV

  Osc. strength:                                                      0.000055
  Trans. dip. moment [a.u.]:           [  -0.001420,    0.002119,   -0.000532]
  <i|r^2|0> [a.u.]:                    [   0.002806,    0.023591,   -0.002251]

  V1^2 = 0.8865, V2^2 = 0.1135

  Important amplitudes:
     core i     occ j      vir a      vir b          v   
    ------------------------------------------------------
     5 (A) B              31 (A) B                -0.5073
     5 (A) A              31 (A) A                -0.5073
    ------------------------------------------------------
  ----------------------------------------------------------------------------


  Excited state 19 (A)                                         [not converged]
  ----------------------------------------------------------------------------
  Term symbol:  20 (-) A                                    R^2 =  3.71089e-06

  Total energy:                                           -424.3003311507 a.u.
  Excitation energy:                                             330.286215 eV


  V1^2 = 0.8865, V2^2 = 0.1135

  Important amplitudes:
     core i     occ j      vir a      vir b          v   
    ------------------------------------------------------
     5 (A) B              33 (A) B                 0.6357
     5 (A) A              33 (A) A                -0.6357
    ------------------------------------------------------
  ----------------------------------------------------------------------------


  Excited state 20 (A)                                             [converged]
  ----------------------------------------------------------------------------
  Term symbol:  21 (-) A                                    R^2 =  6.03774e-07

  Total energy:                                           -424.2994781504 a.u.
  Excitation energy:                                             330.309426 eV

  Osc. strength:                                                      0.000006
  Trans. dip. moment [a.u.]:           [   0.000283,   -0.000783,    0.000020]
  <i|r^2|0> [a.u.]:                    [  -0.000854,   -0.012514,    0.004941]

  V1^2 = 0.8863, V2^2 = 0.1137

  Important amplitudes:
     core i     occ j      vir a      vir b          v   
    ------------------------------------------------------
     5 (A) A              33 (A) A                 0.6372
     5 (A) B              33 (A) B                 0.6372
    ------------------------------------------------------
  ----------------------------------------------------------------------------


--------------------------------------------------------------------------------
  Time of ADC calculation:  CPU 3055.92 s  wall 1844.43 s
================================================================================
 
 --------------------------------------------------------------
 
                    Orbital Energies (a.u.)
 --------------------------------------------------------------
 
 Alpha MOs
 -- Occupied --
-26.396 -26.389 -26.358 -26.354 -11.606  -1.820  -1.710  -1.673
 -1.646  -1.008  -0.901  -0.891  -0.884  -0.762  -0.759  -0.719
 -0.702  -0.691  -0.677  -0.669  -0.658
 -- Virtual --
  0.398   0.436   0.437   0.469   0.661   0.677   0.694   0.697
  1.285   1.292   1.297   1.300   1.313   1.413   1.567   1.571
  1.601   1.614   1.620   1.646   1.661   1.683   1.782   1.812
  1.859   2.079   2.082   2.090   2.112   2.132   2.190   2.222
  2.251   2.283   2.306   2.322   2.378   2.387   2.423   2.589
  2.864   2.917   3.030   3.162   3.163   3.357   3.428   3.440
  3.458   4.627   4.690   4.759   4.868   6.295
 
 Beta MOs
 -- Occupied --
-26.396 -26.389 -26.358 -26.354 -11.606  -1.820  -1.710  -1.673
 -1.646  -1.008  -0.901  -0.891  -0.884  -0.762  -0.759  -0.719
 -0.702  -0.691  -0.677  -0.669  -0.658
 -- Virtual --
  0.398   0.436   0.437   0.469   0.661   0.677   0.694   0.697
  1.285   1.292   1.297   1.300   1.313   1.413   1.567   1.571
  1.601   1.614   1.620   1.646   1.661   1.683   1.782   1.812
  1.859   2.079   2.082   2.090   2.112   2.132   2.190   2.222
  2.251   2.283   2.306   2.322   2.378   2.387   2.423   2.589
  2.864   2.917   3.030   3.162   3.163   3.357   3.428   3.440
  3.458   4.627   4.690   4.759   4.868   6.295
 --------------------------------------------------------------
 
          Ground-State Mulliken Net Atomic Charges

     Atom                 Charge (a.u.)    Spin (a.u.)
  --------------------------------------------------------
      1 C                     1.308387       0.000000
      2 F                    -0.369458       0.000000
      3 F                    -0.282460       0.000000
      4 F                    -0.364263       0.000000
      5 F                    -0.292206       0.000000
  --------------------------------------------------------
  Sum of atomic charges =     0.000000
  Sum of spin   charges =     0.000000

 -----------------------------------------------------------------
                    Cartesian Multipole Moments
 -----------------------------------------------------------------
    Charge (ESU x 10^10)
                 0.0000
    Dipole Moment (Debye)
         X      -0.4387      Y       0.5136      Z      -0.0954
       Tot       0.6822
    Quadrupole Moments (Debye-Ang)
        XX     -24.5582     XY      -1.5210     YY     -22.5840
        XZ       0.0781     YZ      -0.0645     ZZ     -24.6436
    Octopole Moments (Debye-Ang^2)
       XXX      49.9232    XXY     -57.0872    XYY      13.4340
       YYY    -166.4397    XXZ      -0.0986    XYZ      -0.0119
       YYZ      -0.6760    XZZ      17.7507    YZZ     -58.1232
       ZZZ       0.6835
    Hexadecapole Moments (Debye-Ang^3)
      XXXX    -145.1235   XXXY     116.5813   XXYY    -172.0700
      XYYY     113.3480   YYYY    -868.6216   XXXZ      -0.1302
      XXYZ       0.0854   XYYZ       0.1009   YYYZ      -4.5770
      XXZZ     -38.2886   XYZZ      41.9049   YYZZ    -162.7817
      XZZZ      -0.7606   YZZZ       1.9766   ZZZZ     -74.9712
 -----------------------------------------------------------------
Archival summary:
1\1\tp-linux1\SP\HF\6-31G*\41\thomas\SatMar1808:13:212017SatMar1808:13:212017\0\\#,HF,6-31G*,\\0,1\C\F,1,1.26172\F,1,1.26893,2,112.853\F,1,1.34051,2,111.557,3,123.283,0\F,1,1.34371,2,109.469,3,-121.776,0\\HF=-435.639081\\@

 Total job time:  1847.94s(wall), 3066.58s(cpu) 
 Sat Mar 18 08:13:21 2017

        *************************************************************
        *                                                           *
        *  Thank you very much for using Q-Chem.  Have a nice day.  *
        *                                                           *
        *************************************************************


0 sent ACK to 0 
now end server 0 ... 
cleanup process ... done
