
Running Job 1 of 2 ddtraj3t31.inp
qchem ddtraj3t31.inp_11278.0 /scratch/qchem/qchem11278/ 1
/mnt/software/qchem/bin/mpi/mpirun_qchem -machinefile /mnt/software/qchem/bin/mpi/machines -np 1 /mnt/software/qchem/exe/qcprog.exe ddtraj3t31.inp_11278.0 /scratch/qchem/qchem11278/

Process 0 of 1 is on tp-linux1 - thread support 0
initial socket setup ...start
initial socket setup ...done 
now start server 0 ... 

cmd = ssh tp-linux1 /mnt/software/qchem/bin/get_hostid 379416523 > /scratch/qchem/qchem11278/lic.dat
                  Welcome to Q-Chem
     A Quantum Leap Into The Future Of Chemistry


 Q-Chem 4.3, Q-Chem, Inc., Pleasanton, CA (2015)

 Y. Shao,  Z. Gan,  E. Epifanovsky,  A. T. B. Gilbert,  M. Wormit,  
 J. Kussmann,  A. W. Lange,  A. Behn,  J. Deng,  X. Feng,  D. Ghosh,  
 M. Goldey,  P. R. Horn,  L. D. Jacobson,  I. Kaliman,  R. Z. Khaliullin,  
 T. Kus,  A. Landau,  J. Liu,  E. I. Proynov,  Y. M. Rhee,  R. M. Richard,  
 M. A. Rohrdanz,  R. P. Steele,  E. J. Sundstrom,  H. L. Woodcock III,  
 P. M. Zimmerman,  D. Zuev,  B. Albrecht,  E. Alguire,  B. Austin,  
 S. A. Baeppler,  G. J. O. Beran,  Y. A. Bernard,  E. Berquist,  
 K. Brandhorst,  K. B. Bravaya,  S. T. Brown,  D. Casanova,  C.-M. Chang,  
 Y. Chen,  S. H. Chien,  K. D. Closser,  D. L. Crittenden,  M. Diedenhofen,  
 R. A. DiStasio Jr.,  H. Do,  A. D. Dutoi,  R. G. Edgar,  P.-T. Fang,  
 S. Fatehi,  Q. Feng,  L. Fusti-Molnar,  A. Ghysels,  
 A. Golubeva-Zadorozhnaya,  J. Gomes,  A. Gunina,  M. W. D. Hanson-Heine,  
 P. H. P. Harbach,  A. W. Hauser,  E. G. Hohenstein,  Z. C. Holden,  K. Hui,  
 T.-C. Jagau,  H. Ji,  B. Kaduk,  K. Khistyaev,  Jaehoon Kim,  Jihan Kim,  
 R. A. King,  P. Klunzinger,  D. Kosenkov,  T. Kowalczyk,  C. M. Krauter,  
 K. U. Lao,  A. Laurent,  K. V. Lawler,  S. Lehtola,  S. V. Levchenko,  
 C. Y. Lin,  Y.-S. Lin,  F. Liu,  E. Livshits,  R. C. Lochan,  A. Luenser,  
 P. Manohar,  S. F. Manzer,  S.-P. Mao,  N. Mardirossian,  A. V. Marenich,  
 L. A. Martinez-Martinez,  S. A. Maurer,  N. J. Mayhall,  K. Nanda,  
 C. M. Oana,  R. Olivares-Amaya,  D. P. O'Neill,  J. A. Parkhill,  
 T. M. Perrine,  R. Peverati,  P. A. Pieniazek,  F. Plasser,  A. Prociuk,  
 D. R. Rehn,  E. Rosta,  N. J. Russ,  N. Sergueev,  S. M. Sharada,  
 S. Sharma,  D. W. Small,  A. Sodt,  T. Stauch,  T. Stein,  D. Stuck,  
 Y.-C. Su,  A. J. W. Thom,  T. Tsuchimochi,  L. Vogt,  O. Vydrov,  T. Wang,  
 M. A. Watson,  J. Wenzel,  A. White,  C. F. Williams,  V. Vanovschi,  
 S. Yeganeh,  S. R. Yost,  Z.-Q. You,  I. Y. Zhang,  X. Zhang,  Y. Zhao,  
 B. R. Brooks,  G. K. L. Chan,  D. M. Chipman,  C. J. Cramer,  
 W. A. Goddard III,  M. S. Gordon,  W. J. Hehre,  A. Klamt,  
 H. F. Schaefer III,  M. W. Schmidt,  C. D. Sherrill,  D. G. Truhlar,  
 A. Warshel,  X. Xu,  A. Aspuru-Guzik,  R. Baer,  A. T. Bell,  N. A. Besley,  
 J.-D. Chai,  A. Dreuw,  B. D. Dunietz,  T. R. Furlani,  S. R. Gwaltney,  
 C.-P. Hsu,  Y. Jung,  J. Kong,  D. S. Lambrecht,  W. Liang,  C. Ochsenfeld,  
 V. A. Rassolov,  L. V. Slipchenko,  J. E. Subotnik,  T. Van Voorhis,  
 J. M. Herbert,  A. I. Krylov,  P. M. W. Gill,  M. Head-Gordon

 Contributors to earlier versions of Q-Chem not listed above: 
 R. D. Adamson,  J. Baker,  E. F. C. Byrd,  A. K. Chakraborty,  C.-L. Cheng,  
 H. Dachsel,  R. J. Doerksen,  G. Hawkins,  A. Heyden,  S. Hirata,  
 G. Kedziora,  F. J. Keil,  C. Kelley,  P. P. Korambath,  W. Kurlancheek,  
 A. M. Lee,  M. S. Lee,  D. Liotard,  I. Lotan,  P. E. Maslen,  N. Nair,  
 D. Neuhauser,  R. Olson,  B. Peters,  J. Ritchie,  N. E. Schultz,  
 N. Shenvi,  A. C. Simmonett,  K. S. Thanthiriwatte,  Q. Wu,  W. Zhang

 Please cite Q-Chem as follows:
 Y. Shao et al., Mol. Phys. 113, 184-215 (2015)
 DOI: 10.1080/00268976.2014.952696

 Q-Chem 4.3.0 for Intel X86 Linux

 Parts of Q-Chem use Armadillo 5.200.1 (Boston Tea Smuggler).
 http://arma.sourceforge.net/

 Q-Chem begins on Sat Mar 18 13:56:19 2017  

Host: 
0

     Scratch files written to /scratch/qchem/qchem11278//
 Nov1815 1189b_ 19540  19532 5443   
 Parallel job on  1  processors
Processing $rem in /mnt/software/qchem/config/preferences.
 MEM_TOTAL  2000 

Checking the input file for inconsistencies... 	...done.

--------------------------------------------------------------
User input:
--------------------------------------------------------------
$comment
XAS calculation for the 2b valence excited for water using cvs-adc(2)-x + 6-311+G* basis set
job 1 - determination of HF orbitals
$end

$molecule
0 1
6  -0.435182  2.79214  -0.269502
9  0.757425  2.699948  -0.16621
9  -1.080069  3.132594  0.747651
9  -1.67719  0.63869  0.862552
9  -0.983858  2.703934  -1.272432
$end

$rem
jobtype      sp
sym_ignore true
exchange     hf
basis        6-31G*
unrestricted true
$end

--------------------------------------------------------------
 ----------------------------------------------------------------
             Standard Nuclear Orientation (Angstroms)
    I     Atom           X                Y                Z
 ----------------------------------------------------------------
    1      C      -0.4351820000     2.7921400000    -0.2695020000
    2      F       0.7574250000     2.6999480000    -0.1662100000
    3      F      -1.0800690000     3.1325940000     0.7476510000
    4      F      -1.6771900000     0.6386900000     0.8625520000
    5      F      -0.9838580000     2.7039340000    -1.2724320000
 ----------------------------------------------------------------
 Nuclear Repulsion Energy =   187.5034652304 hartrees
 There are       21 alpha and       21 beta electrons
 Requested basis set is 6-31G(d)
 There are 20 shells and 75 basis functions

 Total QAlloc Memory Limit   2000 MB
 Mega-Array Size        61 MB
 MEM_STATIC part        62 MB

                       Distance Matrix (Angstroms)
             C (  1)   F (  2)   F (  3)   F (  4)
   F (  2)  1.200617
   F (  3)  1.251554  2.097310
   F (  4)  2.731570  3.351788  2.566966
   F (  5)  1.146601  2.062961  2.067303  3.050262
 
 tim1(1): 
  0.000000000000000E+000
 tim1(2): 
  0.000000000000000E+000
 A cutoff of  1.0D-08 yielded    187 shell pairs
 There are      2840 function pairs
 
 -------------------------------------------------------
 OpenMP Integral Computing Module                       
 Release: version 1.0, May 2013, Q-Chem Inc. Pittsburgh 
 -------------------------------------------------------
 Integral Job Info:
 Integral job number is                      11
 Integral operator is                         1
 short-range coefficients                     0
 long-range coefficients              100000000
 Omega coefficients                           0
 if combine SR and LR in K                    0
 Integral screening is                        0
 Integral computing path is                   2
 max size of driver memory is            800000
 size of driver memory is                593474
 size of scratch memory is              2260544
 max col of scratch BK array               1296
 max len of scratch array in speh3          155
 max len of scratch index in speh4           18
 max int batch size is                      520
 min int batch size is                       52
 fixed nKL is                                52
 max L of basis functions is                  2
 order of int derivative is                   0
 number of shells is                         20
 number of basis is                          75
 number of cartesian basis is                75
 number of contracted shell pairs           187
 number of primitive shell pairs            919
 maxK2 (contraction) of shell pair           36
 max number of K2 of shell pair               1
 max number of CS2 of shell pair             27
 max number of PS2 of shell pair            180
 mem total for path MDJ                   18100
 -------------------------------------------------------
 Smallest overlap matrix eigenvalue = 3.29E-03

 Scale SEOQF with 1.000000e-01/1.000000e-01/1.000000e+00

 Standard Electronic Orientation quadrupole field applied
 Nucleus-field energy     =    -0.0000000078 hartrees
 Guess from superposition of atomic densities
 Warning:  Energy on first SCF cycle will be non-variational
 An unrestricted Hartree-Fock SCF calculation will be
 performed using Pulay DIIS extrapolation
 SCF converges when DIIS error is below 1.0E-05
 using 8 threads for integral computing 
 ---------------------------------------
  Cycle       Energy         DIIS Error
 ---------------------------------------
    1    -436.5893859315      9.72E-02
    2    -435.1297348771      2.11E-02
    3    -435.2467792902      1.54E-02
    4    -435.3676304102      2.33E-03
    5    -435.3707641225      6.83E-04
    6    -435.3712938683      2.16E-04
    7    -435.3714098632      8.61E-05
    8    -435.3714433520      4.07E-05
    9    -435.3714494037      1.19E-05
   10    -435.3714498197      4.53E-06 Convergence criterion met
 ---------------------------------------
 <S^2> = 0.0000
 SCF time:  CPU 10.27 s  wall 2.48 s
 SCF   energy in the final basis set = -435.3714498197
 Total energy in the final basis set = -435.3714498197
 
 --------------------------------------------------------------
 
                    Orbital Energies (a.u.)
 --------------------------------------------------------------
 
 Alpha MOs
 -- Occupied --
-26.577 -26.561 -26.505 -25.968 -11.748  -2.012  -1.911  -1.830
 -1.221  -1.145  -1.074  -1.050  -1.013  -0.891  -0.879  -0.878
 -0.822  -0.813  -0.331  -0.331  -0.317
 -- Virtual --
  0.035   0.207   0.401   0.431   0.548   0.603   0.651   0.705
  1.152   1.177   1.226   1.273   1.325   1.411   1.430   1.460
  1.483   1.501   1.509   1.555   1.569   1.735   1.785   1.799
  1.827   1.932   1.937   1.961   2.009   2.085   2.123   2.152
  2.178   2.188   2.279   2.342   2.414   2.414   2.426   2.439
  2.443   2.604   2.894   2.953   3.205   3.288   3.449   3.481
  3.512   4.144   4.440   4.913   5.061   5.412
 
 Beta MOs
 -- Occupied --
-26.577 -26.561 -26.505 -25.968 -11.748  -2.012  -1.911  -1.830
 -1.221  -1.145  -1.074  -1.050  -1.013  -0.891  -0.879  -0.878
 -0.822  -0.813  -0.331  -0.331  -0.317
 -- Virtual --
  0.035   0.207   0.401   0.431   0.548   0.603   0.651   0.705
  1.152   1.177   1.226   1.273   1.325   1.411   1.430   1.460
  1.483   1.501   1.509   1.555   1.569   1.735   1.785   1.799
  1.827   1.932   1.937   1.961   2.009   2.085   2.123   2.152
  2.178   2.188   2.279   2.342   2.414   2.414   2.426   2.439
  2.443   2.604   2.894   2.953   3.205   3.288   3.449   3.481
  3.512   4.144   4.440   4.913   5.061   5.412
 --------------------------------------------------------------
 
          Ground-State Mulliken Net Atomic Charges

     Atom                 Charge (a.u.)    Spin (a.u.)
  --------------------------------------------------------
      1 C                     1.099117       0.000000
      2 F                    -0.104028       0.000000
      3 F                    -0.127756       0.000000
      4 F                    -0.851219       0.000000
      5 F                    -0.016114       0.000000
  --------------------------------------------------------
  Sum of atomic charges =     0.000000
  Sum of spin   charges =     0.000000

 -----------------------------------------------------------------
                    Cartesian Multipole Moments
 -----------------------------------------------------------------
    Charge (ESU x 10^10)
                 0.0000
    Dipole Moment (Debye)
         X       4.9740      Y       8.6223      Z      -4.9370
       Tot      11.1112
    Quadrupole Moments (Debye-Ang)
        XX     -33.0605     XY      -0.4440     YY       7.2962
        XZ       6.5424     YZ      -6.5391     ZZ     -24.9181
    Octopole Moments (Debye-Ang^2)
       XXX      68.8984    XXY     -57.3418    XYY       6.0581
       YYY     -67.1707    XXZ     -10.6767    XYZ       6.1232
       YYZ     -14.6816    XZZ      20.5521    YZZ     -52.1691
       ZZZ      -5.4841
    Hexadecapole Moments (Debye-Ang^3)
      XXXX    -211.6959   XXXY      97.3064   XXYY    -171.7230
      XYYY      49.2840   YYYY    -594.6580   XXXZ      34.7705
      XXYZ      -1.1408   XYYZ      14.9547   YYYZ     -19.2069
      XXZZ     -52.7458   XYZZ      28.8187   YYZZ    -154.4001
      XZZZ      23.5862   YZZZ      16.1167   ZZZZ     -96.4461
 -----------------------------------------------------------------
Archival summary:
1\1\tp-linux1\SP\HF\6-31G*\41\thomas\SatMar1813:56:222017SatMar1813:56:222017\0\\#,HF,6-31G*,\\0,1\C\F,1,1.1466\F,1,1.20062,2,123.003\F,1,1.25155,2,119.028,3,-172.543,0\F,4,2.56697,1,83.7974,2,-83.7607,0\\HF=-435.37145\\@

 Total job time:  2.78s(wall), 11.98s(cpu) 
 Sat Mar 18 13:56:22 2017

        *************************************************************
        *                                                           *
        *  Thank you very much for using Q-Chem.  Have a nice day.  *
        *                                                           *
        *************************************************************


0 sent ACK to 0 
now end server 0 ... 
cleanup process ... done

Running Job 2 of 2 ddtraj3t31.inp
qchem ddtraj3t31.inp_11278.1 /scratch/qchem/qchem11278/ 1
/mnt/software/qchem/bin/mpi/mpirun_qchem -machinefile /mnt/software/qchem/bin/mpi/machines -np 1 /mnt/software/qchem/exe/qcprog.exe ddtraj3t31.inp_11278.1 /scratch/qchem/qchem11278/

Process 0 of 1 is on tp-linux1 - thread support 0
initial socket setup ...start
initial socket setup ...done 
now start server 0 ... 

cmd = ssh tp-linux1 /mnt/software/qchem/bin/get_hostid 1010946845 > /scratch/qchem/qchem11278/lic.dat
                  Welcome to Q-Chem
     A Quantum Leap Into The Future Of Chemistry


 Q-Chem 4.3, Q-Chem, Inc., Pleasanton, CA (2015)

 Y. Shao,  Z. Gan,  E. Epifanovsky,  A. T. B. Gilbert,  M. Wormit,  
 J. Kussmann,  A. W. Lange,  A. Behn,  J. Deng,  X. Feng,  D. Ghosh,  
 M. Goldey,  P. R. Horn,  L. D. Jacobson,  I. Kaliman,  R. Z. Khaliullin,  
 T. Kus,  A. Landau,  J. Liu,  E. I. Proynov,  Y. M. Rhee,  R. M. Richard,  
 M. A. Rohrdanz,  R. P. Steele,  E. J. Sundstrom,  H. L. Woodcock III,  
 P. M. Zimmerman,  D. Zuev,  B. Albrecht,  E. Alguire,  B. Austin,  
 S. A. Baeppler,  G. J. O. Beran,  Y. A. Bernard,  E. Berquist,  
 K. Brandhorst,  K. B. Bravaya,  S. T. Brown,  D. Casanova,  C.-M. Chang,  
 Y. Chen,  S. H. Chien,  K. D. Closser,  D. L. Crittenden,  M. Diedenhofen,  
 R. A. DiStasio Jr.,  H. Do,  A. D. Dutoi,  R. G. Edgar,  P.-T. Fang,  
 S. Fatehi,  Q. Feng,  L. Fusti-Molnar,  A. Ghysels,  
 A. Golubeva-Zadorozhnaya,  J. Gomes,  A. Gunina,  M. W. D. Hanson-Heine,  
 P. H. P. Harbach,  A. W. Hauser,  E. G. Hohenstein,  Z. C. Holden,  K. Hui,  
 T.-C. Jagau,  H. Ji,  B. Kaduk,  K. Khistyaev,  Jaehoon Kim,  Jihan Kim,  
 R. A. King,  P. Klunzinger,  D. Kosenkov,  T. Kowalczyk,  C. M. Krauter,  
 K. U. Lao,  A. Laurent,  K. V. Lawler,  S. Lehtola,  S. V. Levchenko,  
 C. Y. Lin,  Y.-S. Lin,  F. Liu,  E. Livshits,  R. C. Lochan,  A. Luenser,  
 P. Manohar,  S. F. Manzer,  S.-P. Mao,  N. Mardirossian,  A. V. Marenich,  
 L. A. Martinez-Martinez,  S. A. Maurer,  N. J. Mayhall,  K. Nanda,  
 C. M. Oana,  R. Olivares-Amaya,  D. P. O'Neill,  J. A. Parkhill,  
 T. M. Perrine,  R. Peverati,  P. A. Pieniazek,  F. Plasser,  A. Prociuk,  
 D. R. Rehn,  E. Rosta,  N. J. Russ,  N. Sergueev,  S. M. Sharada,  
 S. Sharma,  D. W. Small,  A. Sodt,  T. Stauch,  T. Stein,  D. Stuck,  
 Y.-C. Su,  A. J. W. Thom,  T. Tsuchimochi,  L. Vogt,  O. Vydrov,  T. Wang,  
 M. A. Watson,  J. Wenzel,  A. White,  C. F. Williams,  V. Vanovschi,  
 S. Yeganeh,  S. R. Yost,  Z.-Q. You,  I. Y. Zhang,  X. Zhang,  Y. Zhao,  
 B. R. Brooks,  G. K. L. Chan,  D. M. Chipman,  C. J. Cramer,  
 W. A. Goddard III,  M. S. Gordon,  W. J. Hehre,  A. Klamt,  
 H. F. Schaefer III,  M. W. Schmidt,  C. D. Sherrill,  D. G. Truhlar,  
 A. Warshel,  X. Xu,  A. Aspuru-Guzik,  R. Baer,  A. T. Bell,  N. A. Besley,  
 J.-D. Chai,  A. Dreuw,  B. D. Dunietz,  T. R. Furlani,  S. R. Gwaltney,  
 C.-P. Hsu,  Y. Jung,  J. Kong,  D. S. Lambrecht,  W. Liang,  C. Ochsenfeld,  
 V. A. Rassolov,  L. V. Slipchenko,  J. E. Subotnik,  T. Van Voorhis,  
 J. M. Herbert,  A. I. Krylov,  P. M. W. Gill,  M. Head-Gordon

 Contributors to earlier versions of Q-Chem not listed above: 
 R. D. Adamson,  J. Baker,  E. F. C. Byrd,  A. K. Chakraborty,  C.-L. Cheng,  
 H. Dachsel,  R. J. Doerksen,  G. Hawkins,  A. Heyden,  S. Hirata,  
 G. Kedziora,  F. J. Keil,  C. Kelley,  P. P. Korambath,  W. Kurlancheek,  
 A. M. Lee,  M. S. Lee,  D. Liotard,  I. Lotan,  P. E. Maslen,  N. Nair,  
 D. Neuhauser,  R. Olson,  B. Peters,  J. Ritchie,  N. E. Schultz,  
 N. Shenvi,  A. C. Simmonett,  K. S. Thanthiriwatte,  Q. Wu,  W. Zhang

 Please cite Q-Chem as follows:
 Y. Shao et al., Mol. Phys. 113, 184-215 (2015)
 DOI: 10.1080/00268976.2014.952696

 Q-Chem 4.3.0 for Intel X86 Linux

 Parts of Q-Chem use Armadillo 5.200.1 (Boston Tea Smuggler).
 http://arma.sourceforge.net/

 Q-Chem begins on Sat Mar 18 13:56:24 2017  

Host: 
0

     Scratch files written to /scratch/qchem/qchem11278//
 Nov1815 1189b_ 19540  19532 5443   
 Parallel job on  1  processors
Processing $rem in /mnt/software/qchem/config/preferences.
 MEM_TOTAL  2000 

Checking the input file for inconsistencies... 	...done.

--------------------------------------------------------------
User input:
--------------------------------------------------------------

$comment
job3 - cvs-adc(2) calculation
$end

$molecule
read
$end

$rem
mem_total 3000
mem_static 1500
sym_ignore true
scf_guess read
method cvs-adc(2)
basis 6-31G*
ee_singlets 20
cc_rest_occ 5                  !only excitations from the lowest N orbitals
unrestricted  true
max_scf_cycles 200
$end
--------------------------------------------------------------
 ----------------------------------------------------------------
             Standard Nuclear Orientation (Angstroms)
    I     Atom           X                Y                Z
 ----------------------------------------------------------------
    1      C      -0.4351820000     2.7921400000    -0.2695020000
    2      F       0.7574250000     2.6999480000    -0.1662100000
    3      F      -1.0800690000     3.1325940000     0.7476510000
    4      F      -1.6771900000     0.6386900000     0.8625520000
    5      F      -0.9838580000     2.7039340000    -1.2724320000
 ----------------------------------------------------------------
 Nuclear Repulsion Energy =   187.5034652304 hartrees
 There are       21 alpha and       21 beta electrons
 Requested basis set is 6-31G(d)
 There are 20 shells and 75 basis functions

 Total QAlloc Memory Limit   3000 MB
 Mega-Array Size      1467 MB
 MEM_STATIC part      1500 MB

                       Distance Matrix (Angstroms)
             C (  1)   F (  2)   F (  3)   F (  4)
   F (  2)  1.200617
   F (  3)  1.251554  2.097310
   F (  4)  2.731570  3.351788  2.566966
   F (  5)  1.146601  2.062961  2.067303  3.050262
 
 tim1(1): 
  0.000000000000000E+000
 tim1(2): 
  0.000000000000000E+000
 A cutoff of  1.0D-11 yielded    194 shell pairs
 There are      2926 function pairs
 
 -------------------------------------------------------
 OpenMP Integral Computing Module                       
 Release: version 1.0, May 2013, Q-Chem Inc. Pittsburgh 
 -------------------------------------------------------
 Integral Job Info:
 Integral job number is                      11
 Integral operator is                         1
 short-range coefficients                     0
 long-range coefficients              100000000
 Omega coefficients                           0
 if combine SR and LR in K                    0
 Integral screening is                        0
 Integral computing path is                   2
 max size of driver memory is            800000
 size of driver memory is                593474
 size of scratch memory is              2260544
 max col of scratch BK array               1296
 max len of scratch array in speh3          155
 max len of scratch index in speh4           18
 max int batch size is                      520
 min int batch size is                       52
 fixed nKL is                                52
 max L of basis functions is                  2
 order of int derivative is                   0
 number of shells is                         20
 number of basis is                          75
 number of cartesian basis is                75
 number of contracted shell pairs           194
 number of primitive shell pairs            988
 maxK2 (contraction) of shell pair           36
 max number of K2 of shell pair               1
 max number of CS2 of shell pair             32
 max number of PS2 of shell pair            192
 mem total for path MDJ                   20584
 -------------------------------------------------------
 Smallest overlap matrix eigenvalue = 3.29E-03

 Scale SEOQF with 1.000000e-01/1.000000e-01/1.000000e+00

 Standard Electronic Orientation quadrupole field applied
 Nucleus-field energy     =    -0.0000000078 hartrees
 Guess MOs from SCF MO coefficient file
 Reading MOs from coefficient file
 Reading MOs from coefficient file
 An unrestricted Hartree-Fock SCF calculation will be
 performed using Pulay DIIS extrapolation
 SCF converges when DIIS error is below 1.0E-08
 using 8 threads for integral computing 
 ---------------------------------------
  Cycle       Energy         DIIS Error
 ---------------------------------------
    1    -435.3714499849      1.33E-06
    2    -435.3714499871      6.46E-07
    3    -435.3714499887      4.59E-07
    4    -435.3714499894      1.00E-07
    5    -435.3714499895      3.22E-08
    6    -435.3714499895      1.11E-08
    7    -435.3714499895      4.38E-09 Convergence criterion met
 ---------------------------------------
 <S^2> = 0.0000
 SCF time:  CPU 7.48 s  wall 1.79 s
 SCF   energy in the final basis set = -435.3714499895
 Total energy in the final basis set = -435.3714499895
================================================================================
|                                                                              |
|                                 A D C  M A N                                 |
|                                                                              |
 ------------------------------------------------------------------------------ 
|                                                                              |
| Components:                                                                  |
|                                                                              |
| - libvmm - 1.2-release                                                       |
|   Authors:                                                                   |
|   Evgeny Epifanovsky, Ilya Kaliman                                           |
|                                                                              |
| - libtensor - 2.4-trunk                                                      |
|   Authors:                                                                   |
|   Evgeny Epifanovsky, Michael Wormit, Dmitry Zuev, Sam Manzer                |
|                                                                              |
| - libwfa - 1.1-beta                                                          |
|   Authors:                                                                   |
|   Felix Plasser, Stefanie Baeppler, Benjamin Thomitzni, Michael Wormit       |
|                                                                              |
| - libadc - 1.0-beta                                                          |
|   Authors:                                                                   |
|   Michael Wormit, Philipp H. P. Harbach, Caroline Krauter, Dirk Rehn,        |
|   Matthias Schneider, Jan Wenzel                                             |
|                                                                              |
| - adcman - 2.4-beta                                                          |
|   Authors:                                                                   |
|   Michael Wormit, Philipp H. P. Harbach, Caroline Krauter, Dirk Rehn,        |
|   Jan Wenzel, Andreas Dreuw                                                  |
|                                                                              |
| Authors of earlier versions of ADCMAN:                                       |
| Andreas Dreuw, Jan Hendrik Starcke, Dirk Rehn, Michael Wormit                |
|                                                                              |
================================================================================

 
 Alpha MOs, Unrestricted
 -- Occupied --                  
-26.577 -26.561 -26.505 -25.968 -11.748  -2.012  -1.911  -1.830
  1 A     2 A     3 A     4 A     5 A     6 A     7 A     8 A                  
 -1.221  -1.145  -1.074  -1.050  -1.013  -0.891  -0.879  -0.878
  9 A    10 A    11 A    12 A    13 A    14 A    15 A    16 A                  
 -0.822  -0.813  -0.331  -0.331  -0.317
 17 A    18 A    19 A    20 A    21 A                                          
 -- Virtual --                   
  0.035   0.207   0.401   0.431   0.548   0.603   0.651   0.705
 22 A    23 A    24 A    25 A    26 A    27 A    28 A    29 A                  
  1.152   1.177   1.226   1.273   1.325   1.411   1.430   1.460
 30 A    31 A    32 A    33 A    34 A    35 A    36 A    37 A                  
  1.483   1.501   1.509   1.555   1.569   1.735   1.784   1.799
 38 A    39 A    40 A    41 A    42 A    43 A    44 A    45 A                  
  1.827   1.932   1.937   1.961   2.009   2.085   2.123   2.152
 46 A    47 A    48 A    49 A    50 A    51 A    52 A    53 A                  
  2.178   2.188   2.279   2.343   2.414   2.414   2.426   2.439
 54 A    55 A    56 A    57 A    58 A    59 A    60 A    61 A                  
  2.443   2.604   2.894   2.953   3.205   3.288   3.449   3.481
 62 A    63 A    64 A    65 A    66 A    67 A    68 A    69 A                  
  3.512   4.144   4.440   4.913   5.061   5.412
 70 A    71 A    72 A    73 A    74 A    75 A                                  
 
 Beta MOs, Unrestricted
 -- Occupied --                  
-26.577 -26.561 -26.505 -25.968 -11.748  -2.012  -1.911  -1.830
  1 A     2 A     3 A     4 A     5 A     6 A     7 A     8 A                  
 -1.221  -1.145  -1.074  -1.050  -1.013  -0.891  -0.879  -0.878
  9 A    10 A    11 A    12 A    13 A    14 A    15 A    16 A                  
 -0.822  -0.813  -0.331  -0.331  -0.317
 17 A    18 A    19 A    20 A    21 A                                          
 -- Virtual --                   
  0.035   0.207   0.401   0.431   0.548   0.603   0.651   0.705
 22 A    23 A    24 A    25 A    26 A    27 A    28 A    29 A                  
  1.152   1.177   1.226   1.273   1.325   1.411   1.430   1.460
 30 A    31 A    32 A    33 A    34 A    35 A    36 A    37 A                  
  1.483   1.501   1.509   1.555   1.569   1.735   1.784   1.799
 38 A    39 A    40 A    41 A    42 A    43 A    44 A    45 A                  
  1.827   1.932   1.937   1.961   2.009   2.085   2.123   2.152
 46 A    47 A    48 A    49 A    50 A    51 A    52 A    53 A                  
  2.178   2.188   2.279   2.343   2.414   2.414   2.426   2.439
 54 A    55 A    56 A    57 A    58 A    59 A    60 A    61 A                  
  2.443   2.604   2.894   2.953   3.205   3.288   3.449   3.481
 62 A    63 A    64 A    65 A    66 A    67 A    68 A    69 A                  
  3.512   4.144   4.440   4.913   5.061   5.412
 70 A    71 A    72 A    73 A    74 A    75 A                                  
 

--------------------------------------------------------------------------------
                                   HF Summary                                   
--------------------------------------------------------------------------------
  Energy:                                                 -435.3714499895 a.u.
  Dip. moment [a.u.]:                  [ -57.636335,  184.313105,    1.804429]
  Total dipole [Debye]:                                             490.869997
  <r^2> [a.u.]:                        [ 206.085790,  959.387681,  114.883952]
  Total <r^2> [a.u.]:                                              1280.357423
--------------------------------------------------------------------------------

--------------------------------------------------------------------------------
                                 MP(2) Summary                                  
--------------------------------------------------------------------------------
  Energy contribution:                                      -0.7983984853 a.u.
  Total energy:                                           -436.1698484748 a.u.
  Dip. moment [a.u.]:                  [ -57.480308,  184.514600,    1.649395]
  Total dipole [Debye]:                                             491.237192
  <r^2> [a.u.]:                        [ 205.286912,  960.767235,  114.578528]
  Total <r^2> [a.u.]:                                              1280.632675
--------------------------------------------------------------------------------
  Starting Davidson ... 
--------------------------------------------------------------------------------
   It NVec Conv  Avg. Norm  Max. Norm  Conv. states           Remark
--------------------------------------------------------------------------------
        20    0  2.086e-01  1.062e+00 10.9950 n n n n n n n n Guess.
    1   40    0  2.489e-02  1.940e-01 10.8400 n n n n n n n n 
    2   60    0  6.733e-03  5.662e-02 10.8387 n n n n n n n n 
    3   80    0  1.750e-03  1.620e-02 10.8387 n n n n n n n n 
    4  100    0  1.227e-03  1.394e-02 10.8387 n n n n n n n n 
    5   40    0  7.205e-04  8.468e-03 10.8387 n n n n n n n n Subspace collapsed.
    6   60    0  7.366e-04  1.021e-02 10.8387 n n n n n n n n 
    7   80    0  7.532e-04  1.096e-02 10.8387 n n n n n n n n 
    8  100    2  3.945e-04  5.110e-03 10.8387 y y n n n n n n 
    9   40    6  1.701e-04  2.275e-03 10.8387 y y n n y y y y Subspace collapsed.
   10   60    7  9.171e-05  1.303e-03 10.8387 y y y n y y y y 
   11   80   13  6.671e-05  9.605e-04 10.8387 y y y y y y y y 
   12  100   14  5.864e-05  9.295e-04 10.8387 y y y y y y y y 
   13   40   14  4.226e-05  6.241e-04 10.8387 y y y y y y y y Subspace collapsed.
   14   60   14  3.686e-05  5.632e-04 10.8387 y y y y y y y y 
   15   80   15  3.499e-05  5.431e-04 10.8387 y y y y y y y y 
   16  100   15  2.672e-05  4.438e-04 10.8387 y y y y y y y y 
   17   38   15  1.356e-05  2.186e-04 10.8387 y y y y y y y y Subspace collapsed.
   18   56   15  9.432e-06  1.538e-04 10.8387 y y y y y y y y 
   19   59   15  9.350e-06  1.521e-04 10.8387 y y y y y y y y 
   20   61   15  9.361e-06  1.525e-04 10.8387 y y y y y y y y 
   21   76   15  6.822e-06  1.096e-04 10.8387 y y y y y y y y 
   22   77   15  6.684e-06  1.074e-04 10.8387 y y y y y y y y 
   23   89   16  5.957e-06  1.026e-04 10.8387 y y y y y y y y 
   24  100   16  4.951e-06  8.820e-05 10.8387 y y y y y y y y 
   25   32   16  2.314e-06  4.112e-05 10.8387 y y y y y y y y Subspace collapsed.
   26   44   16  1.777e-06  3.055e-05 10.8387 y y y y y y y y 
   27   46   16  1.775e-06  3.052e-05 10.8387 y y y y y y y y 
   28   48   16  1.732e-06  2.959e-05 10.8387 y y y y y y y y 
   29   49   16  1.734e-06  2.966e-05 10.8387 y y y y y y y y 
   30   49   16  1.734e-06  2.966e-05 10.8387 y y y y y y y y 
   31   69   16  1.181e-06  2.040e-05 10.8387 y y y y y y y y 
   32   75   17  9.795e-07  1.632e-05 10.8387 y y y y y y y y 
   33   81   17  8.884e-07  1.634e-05 10.8387 y y y y y y y y 
   34   87   18  5.789e-07  1.030e-05 10.8387 y y y y y y y y 
   35   93   18  3.993e-07  7.205e-06 10.8387 y y y y y y y y 
   36   99   18  1.968e-07  3.580e-06 10.8387 y y y y y y y y 
   37  100   18  1.975e-07  3.594e-06 10.8387 y y y y y y y y 
   38   25   19  1.068e-07  1.962e-06 10.8387 y y y y y y y y Subspace collapsed.
   39   30   19  7.435e-08  1.377e-06 10.8387 y y y y y y y y 
   40   35   20  5.045e-08  9.083e-07 10.8387 y y y y y y y y Converged.
--------------------------------------------------------------------------------
  Davidson Summary: 
 ------------------------------------------------------------
  State  0: excitation energy =  10.8387 a.u.   (converged)
  State  1: excitation energy =  10.9106 a.u.   (converged)
  State  2: excitation energy =  11.1496 a.u.   (converged)
  State  3: excitation energy =  11.2071 a.u.   (converged)
  State  4: excitation energy =  11.2216 a.u.   (converged)
  State  5: excitation energy =  11.3007 a.u.   (converged)
  State  6: excitation energy =  11.3090 a.u.   (converged)
  State  7: excitation energy =  11.3844 a.u.   (converged)
  State  8: excitation energy =  11.4965 a.u.   (converged)
  State  9: excitation energy =  11.5461 a.u.   (converged)
  State 10: excitation energy =  11.5503 a.u.   (converged)
  State 11: excitation energy =  11.5733 a.u.   (converged)
  State 12: excitation energy =  11.5789 a.u.   (converged)
  State 13: excitation energy =  11.5962 a.u.   (converged)
  State 14: excitation energy =  11.6481 a.u.   (converged)
  State 15: excitation energy =  11.6820 a.u.   (converged)
  State 16: excitation energy =  12.1737 a.u.   (converged)
  State 17: excitation energy =  12.1808 a.u.   (converged)
  State 18: excitation energy =  12.1989 a.u.   (converged)
  State 19: excitation energy =  12.2034 a.u.   (converged)
 ------------------------------------------------------------


--------------------------------------------------------------------------------
                             Excited State Summary
--------------------------------------------------------------------------------

  Excited state  1 (A)                                             [converged]
  ----------------------------------------------------------------------------
  Term symbol:  2 (-) A                                     R^2 =  2.13962e-13

  Total energy:                                           -425.3311872905 a.u.
  Excitation energy:                                             294.934970 eV

  Osc. strength:                                                      0.000000
  Trans. dip. moment [a.u.]:           [   0.000000,    0.000000,   -0.000000]
  <i|r^2|0> [a.u.]:                    [  -0.000000,    0.000000,    0.000000]

  V1^2 = 0.9594, V2^2 = 0.0406

  Important amplitudes:
     core i     occ j      vir a      vir b          v   
    ------------------------------------------------------
     5 (A) B              22 (A) B                 0.6573
     5 (A) A              22 (A) A                -0.6573
    ------------------------------------------------------
  ----------------------------------------------------------------------------


  Excited state  2 (A)                                             [converged]
  ----------------------------------------------------------------------------
  Term symbol:  3 (-) A                                     R^2 =  1.92477e-13

  Total energy:                                           -425.2592006039 a.u.
  Excitation energy:                                             296.893828 eV

  Osc. strength:                                                      0.112261
  Trans. dip. moment [a.u.]:           [  -0.015970,   -0.120694,    0.024731]
  <i|r^2|0> [a.u.]:                    [   0.027712,   -1.272399,   -0.023505]

  V1^2 = 0.9550, V2^2 = 0.0450

  Important amplitudes:
     core i     occ j      vir a      vir b          v   
    ------------------------------------------------------
     5 (A) A              22 (A) A                -0.6680
     5 (A) B              22 (A) B                -0.6680
    ------------------------------------------------------
  ----------------------------------------------------------------------------


  Excited state  3 (A)                                             [converged]
  ----------------------------------------------------------------------------
  Term symbol:  4 (-) A                                     R^2 =  2.11467e-13

  Total energy:                                           -425.0202607194 a.u.
  Excitation energy:                                             303.395713 eV

  Osc. strength:                                                      0.000000
  Trans. dip. moment [a.u.]:           [   0.000000,   -0.000000,    0.000000]
  <i|r^2|0> [a.u.]:                    [   0.000000,   -0.000000,   -0.000000]

  V1^2 = 0.9311, V2^2 = 0.0689

  Important amplitudes:
     core i     occ j      vir a      vir b          v   
    ------------------------------------------------------
     5 (A) B              23 (A) B                 0.5906
     5 (A) A              23 (A) A                -0.5906
    ------------------------------------------------------
  ----------------------------------------------------------------------------


  Excited state  4 (A)                                             [converged]
  ----------------------------------------------------------------------------
  Term symbol:  5 (-) A                                     R^2 =  4.33417e-13

  Total energy:                                           -424.9627882749 a.u.
  Excitation energy:                                             304.959617 eV

  Osc. strength:                                                      0.005244
  Trans. dip. moment [a.u.]:           [  -0.002102,   -0.002042,   -0.026332]
  <i|r^2|0> [a.u.]:                    [  -0.009679,   -0.049865,    0.012655]

  V1^2 = 0.9182, V2^2 = 0.0818

  Important amplitudes:
     core i     occ j      vir a      vir b          v   
    ------------------------------------------------------
     5 (A) A              23 (A) A                -0.6428
     5 (A) B              23 (A) B                -0.6428
    ------------------------------------------------------
  ----------------------------------------------------------------------------


  Excited state  5 (A)                                             [converged]
  ----------------------------------------------------------------------------
  Term symbol:  6 (-) A                                     R^2 =  1.20980e-13

  Total energy:                                           -424.9482916748 a.u.
  Excitation energy:                                             305.354090 eV

  Osc. strength:                                                      0.000000
  Trans. dip. moment [a.u.]:           [   0.000000,   -0.000000,   -0.000000]
  <i|r^2|0> [a.u.]:                    [  -0.000000,   -0.000000,    0.000000]

  V1^2 = 0.9530, V2^2 = 0.0470

  Important amplitudes:
     core i     occ j      vir a      vir b          v   
    ------------------------------------------------------
     5 (A) B              27 (A) B                 0.4541
     5 (A) A              27 (A) A                -0.4541
    ------------------------------------------------------
  ----------------------------------------------------------------------------


  Excited state  6 (A)                                             [converged]
  ----------------------------------------------------------------------------
  Term symbol:  7 (-) A                                     R^2 =  1.20578e-13

  Total energy:                                           -424.8691580738 a.u.
  Excitation energy:                                             307.507425 eV

  Osc. strength:                                                      0.120367
  Trans. dip. moment [a.u.]:           [   0.090551,   -0.029414,   -0.083140]
  <i|r^2|0> [a.u.]:                    [  -0.154351,   -0.308806,    0.087835]

  V1^2 = 0.9451, V2^2 = 0.0549

  Important amplitudes:
     core i     occ j      vir a      vir b          v   
    ------------------------------------------------------
     5 (A) B              24 (A) B                -0.4828
     5 (A) A              24 (A) A                -0.4828
    ------------------------------------------------------
  ----------------------------------------------------------------------------


  Excited state  7 (A)                                             [converged]
  ----------------------------------------------------------------------------
  Term symbol:  8 (-) A                                     R^2 =  1.78682e-13

  Total energy:                                           -424.8608300127 a.u.
  Excitation energy:                                             307.734043 eV

  Osc. strength:                                                      0.000000
  Trans. dip. moment [a.u.]:           [   0.000000,   -0.000000,   -0.000000]
  <i|r^2|0> [a.u.]:                    [  -0.000000,   -0.000000,    0.000000]

  V1^2 = 0.9500, V2^2 = 0.0500

  Important amplitudes:
     core i     occ j      vir a      vir b          v   
    ------------------------------------------------------
     5 (A) B              29 (A) B                -0.3886
     5 (A) A              29 (A) A                 0.3886
    ------------------------------------------------------
  ----------------------------------------------------------------------------


  Excited state  8 (A)                                             [converged]
  ----------------------------------------------------------------------------
  Term symbol:  9 (-) A                                     R^2 =  2.64002e-13

  Total energy:                                           -424.7854797163 a.u.
  Excitation energy:                                             309.784429 eV

  Osc. strength:                                                      0.107174
  Trans. dip. moment [a.u.]:           [   0.087805,    0.009788,    0.079471]
  <i|r^2|0> [a.u.]:                    [  -0.148930,    0.102724,   -0.072278]

  V1^2 = 0.9396, V2^2 = 0.0604

  Important amplitudes:
     core i     occ j      vir a      vir b          v   
    ------------------------------------------------------
     5 (A) A              25 (A) A                 0.4480
     5 (A) B              25 (A) B                 0.4480
    ------------------------------------------------------
  ----------------------------------------------------------------------------


  Excited state  9 (A)                                             [converged]
  ----------------------------------------------------------------------------
  Term symbol:  10 (-) A                                    R^2 =  2.99063e-13

  Total energy:                                           -424.6733071617 a.u.
  Excitation energy:                                             312.836799 eV

  Osc. strength:                                                      0.000000
  Trans. dip. moment [a.u.]:           [  -0.000000,    0.000000,   -0.000000]
  <i|r^2|0> [a.u.]:                    [   0.000000,    0.000000,    0.000000]

  V1^2 = 0.9157, V2^2 = 0.0843

  Important amplitudes:
     core i     occ j      vir a      vir b          v   
    ------------------------------------------------------
     5 (A) B              26 (A) B                -0.4737
     5 (A) A              26 (A) A                 0.4737
    ------------------------------------------------------
  ----------------------------------------------------------------------------


  Excited state 10 (A)                                             [converged]
  ----------------------------------------------------------------------------
  Term symbol:  11 (-) A                                    R^2 =  1.76761e-13

  Total energy:                                           -424.6237699005 a.u.
  Excitation energy:                                             314.184777 eV

  Osc. strength:                                                      0.028264
  Trans. dip. moment [a.u.]:           [   0.002960,   -0.059338,    0.011919]
  <i|r^2|0> [a.u.]:                    [  -0.019737,   -0.643582,   -0.025636]

  V1^2 = 0.9117, V2^2 = 0.0883

  Important amplitudes:
     core i     occ j      vir a      vir b          v   
    ------------------------------------------------------
     5 (A) B              26 (A) B                 0.6014
     5 (A) A              26 (A) A                 0.6014
    ------------------------------------------------------
  ----------------------------------------------------------------------------


  Excited state 11 (A)                                             [converged]
  ----------------------------------------------------------------------------
  Term symbol:  12 (-) A                                    R^2 =  1.97254e-13

  Total energy:                                           -424.6195430821 a.u.
  Excitation energy:                                             314.299794 eV

  Osc. strength:                                                      0.000000
  Trans. dip. moment [a.u.]:           [   0.000000,    0.000000,   -0.000000]
  <i|r^2|0> [a.u.]:                    [   0.000000,    0.000000,    0.000000]

  V1^2 = 0.8991, V2^2 = 0.1009

  Important amplitudes:
     core i     occ j      vir a      vir b          v   
    ------------------------------------------------------
     5 (A) A              24 (A) A                -0.4199
     5 (A) B              24 (A) B                 0.4199
    ------------------------------------------------------
  ----------------------------------------------------------------------------


  Excited state 12 (A)                                             [converged]
  ----------------------------------------------------------------------------
  Term symbol:  13 (-) A                                    R^2 =  3.05128e-13

  Total energy:                                           -424.5965538671 a.u.
  Excitation energy:                                             314.925363 eV

  Osc. strength:                                                      0.023005
  Trans. dip. moment [a.u.]:           [  -0.030775,    0.016968,    0.041793]
  <i|r^2|0> [a.u.]:                    [   0.039821,    0.164271,   -0.054675]

  V1^2 = 0.9036, V2^2 = 0.0964

  Important amplitudes:
     core i     occ j      vir a      vir b          v   
    ------------------------------------------------------
     5 (A) A              27 (A) A                -0.4888
     5 (A) B              27 (A) B                -0.4888
    ------------------------------------------------------
  ----------------------------------------------------------------------------


  Excited state 13 (A)                                             [converged]
  ----------------------------------------------------------------------------
  Term symbol:  14 (-) A                                    R^2 =  4.87088e-13

  Total energy:                                           -424.5909835759 a.u.
  Excitation energy:                                             315.076938 eV

  Osc. strength:                                                      0.000000
  Trans. dip. moment [a.u.]:           [  -0.000000,    0.000000,   -0.000000]
  <i|r^2|0> [a.u.]:                    [   0.000000,    0.000000,    0.000000]

  V1^2 = 0.8943, V2^2 = 0.1057

  Important amplitudes:
     core i     occ j      vir a      vir b          v   
    ------------------------------------------------------
     5 (A) B              25 (A) B                 0.5044
     5 (A) A              25 (A) A                -0.5044
    ------------------------------------------------------
  ----------------------------------------------------------------------------


  Excited state 14 (A)                                             [converged]
  ----------------------------------------------------------------------------
  Term symbol:  15 (-) A                                    R^2 =  7.46511e-13

  Total energy:                                           -424.5736768435 a.u.
  Excitation energy:                                             315.547878 eV

  Osc. strength:                                                      0.037711
  Trans. dip. moment [a.u.]:           [   0.044432,   -0.003968,    0.053741]
  <i|r^2|0> [a.u.]:                    [  -0.074615,   -0.042371,   -0.051396]

  V1^2 = 0.9007, V2^2 = 0.0993

  Important amplitudes:
     core i     occ j      vir a      vir b          v   
    ------------------------------------------------------
     5 (A) A              25 (A) A                -0.4345
     5 (A) B              25 (A) B                -0.4345
    ------------------------------------------------------
  ----------------------------------------------------------------------------


  Excited state 15 (A)                                             [converged]
  ----------------------------------------------------------------------------
  Term symbol:  16 (-) A                                    R^2 =  1.37026e-12

  Total energy:                                           -424.5217708712 a.u.
  Excitation energy:                                             316.960311 eV

  Osc. strength:                                                      0.000000
  Trans. dip. moment [a.u.]:           [   0.000000,   -0.000000,    0.000000]
  <i|r^2|0> [a.u.]:                    [   0.000000,   -0.000000,   -0.000000]

  V1^2 = 0.9003, V2^2 = 0.0997

  Important amplitudes:
     core i     occ j      vir a      vir b          v   
    ------------------------------------------------------
     5 (A) B              28 (A) B                 0.4072
     5 (A) A              28 (A) A                -0.4072
    ------------------------------------------------------
  ----------------------------------------------------------------------------


  Excited state 16 (A)                                             [converged]
  ----------------------------------------------------------------------------
  Term symbol:  17 (-) A                                    R^2 =  3.92938e-10

  Total energy:                                           -424.4878567099 a.u.
  Excitation energy:                                             317.883163 eV

  Osc. strength:                                                      0.016174
  Trans. dip. moment [a.u.]:           [   0.025413,    0.036344,   -0.010490]
  <i|r^2|0> [a.u.]:                    [  -0.059613,    0.365877,   -0.005255]

  V1^2 = 0.9040, V2^2 = 0.0960

  Important amplitudes:
     core i     occ j      vir a      vir b          v   
    ------------------------------------------------------
     5 (A) B              29 (A) B                -0.4620
     5 (A) A              29 (A) A                -0.4620
    ------------------------------------------------------
  ----------------------------------------------------------------------------


  Excited state 17 (A)                                             [converged]
  ----------------------------------------------------------------------------
  Term symbol:  18 (-) A                                    R^2 =  2.08944e-08

  Total energy:                                           -423.9961415269 a.u.
  Excitation energy:                                             331.263413 eV

  Osc. strength:                                                      0.000000
  Trans. dip. moment [a.u.]:           [   0.000000,    0.000000,   -0.000000]
  <i|r^2|0> [a.u.]:                    [  -0.000000,    0.000000,    0.000000]

  V1^2 = 0.8755, V2^2 = 0.1245

  Important amplitudes:
     core i     occ j      vir a      vir b          v   
    ------------------------------------------------------
     5 (A) A              30 (A) A                 0.5807
     5 (A) B              30 (A) B                -0.5807
    ------------------------------------------------------
  ----------------------------------------------------------------------------


  Excited state 18 (A)                                             [converged]
  ----------------------------------------------------------------------------
  Term symbol:  19 (-) A                                    R^2 =  7.03130e-08

  Total energy:                                           -423.9890540542 a.u.
  Excitation energy:                                             331.456273 eV

  Osc. strength:                                                      0.008402
  Trans. dip. moment [a.u.]:           [  -0.014915,   -0.001820,   -0.028440]
  <i|r^2|0> [a.u.]:                    [   0.026202,   -0.020417,    0.041981]

  V1^2 = 0.8739, V2^2 = 0.1261

  Important amplitudes:
     core i     occ j      vir a      vir b          v   
    ------------------------------------------------------
     5 (A) A              30 (A) A                -0.6010
     5 (A) B              30 (A) B                -0.6010
    ------------------------------------------------------
  ----------------------------------------------------------------------------


  Excited state 19 (A)                                             [converged]
  ----------------------------------------------------------------------------
  Term symbol:  20 (-) A                                    R^2 =  4.33250e-07

  Total energy:                                           -423.9709133998 a.u.
  Excitation energy:                                             331.949905 eV

  Osc. strength:                                                      0.000000
  Trans. dip. moment [a.u.]:           [   0.000000,   -0.000000,   -0.000000]
  <i|r^2|0> [a.u.]:                    [  -0.000000,   -0.000000,    0.000000]

  V1^2 = 0.8693, V2^2 = 0.1307

  Important amplitudes:
     core i     occ j      vir a      vir b          v   
    ------------------------------------------------------
     5 (A) A              31 (A) A                -0.5798
     5 (A) B              31 (A) B                 0.5798
    ------------------------------------------------------
  ----------------------------------------------------------------------------


  Excited state 20 (A)                                             [converged]
  ----------------------------------------------------------------------------
  Term symbol:  21 (-) A                                    R^2 =  9.08343e-07

  Total energy:                                           -423.9664153902 a.u.
  Excitation energy:                                             332.072303 eV

  Osc. strength:                                                      0.005362
  Trans. dip. moment [a.u.]:           [   0.025601,   -0.001714,   -0.000847]
  <i|r^2|0> [a.u.]:                    [  -0.025632,   -0.020632,    0.000918]

  V1^2 = 0.8684, V2^2 = 0.1316

  Important amplitudes:
     core i     occ j      vir a      vir b          v   
    ------------------------------------------------------
     5 (A) B              31 (A) B                 0.6000
     5 (A) A              31 (A) A                 0.6000
    ------------------------------------------------------
  ----------------------------------------------------------------------------


--------------------------------------------------------------------------------
  Time of ADC calculation:  CPU 2571.30 s  wall 1550.20 s
================================================================================
 
 --------------------------------------------------------------
 
                    Orbital Energies (a.u.)
 --------------------------------------------------------------
 
 Alpha MOs
 -- Occupied --
-26.577 -26.561 -26.505 -25.968 -11.748  -2.012  -1.911  -1.830
 -1.221  -1.145  -1.074  -1.050  -1.013  -0.891  -0.879  -0.878
 -0.822  -0.813  -0.331  -0.331  -0.317
 -- Virtual --
  0.035   0.207   0.401   0.431   0.548   0.603   0.651   0.705
  1.152   1.177   1.226   1.273   1.325   1.411   1.430   1.460
  1.483   1.501   1.509   1.555   1.569   1.735   1.784   1.799
  1.827   1.932   1.937   1.961   2.009   2.085   2.123   2.152
  2.178   2.188   2.279   2.343   2.414   2.414   2.426   2.439
  2.443   2.604   2.894   2.953   3.205   3.288   3.449   3.481
  3.512   4.144   4.440   4.913   5.061   5.412
 
 Beta MOs
 -- Occupied --
-26.577 -26.561 -26.505 -25.968 -11.748  -2.012  -1.911  -1.830
 -1.221  -1.145  -1.074  -1.050  -1.013  -0.891  -0.879  -0.878
 -0.822  -0.813  -0.331  -0.331  -0.317
 -- Virtual --
  0.035   0.207   0.401   0.431   0.548   0.603   0.651   0.705
  1.152   1.177   1.226   1.273   1.325   1.411   1.430   1.460
  1.483   1.501   1.509   1.555   1.569   1.735   1.784   1.799
  1.827   1.932   1.937   1.961   2.009   2.085   2.123   2.152
  2.178   2.188   2.279   2.343   2.414   2.414   2.426   2.439
  2.443   2.604   2.894   2.953   3.205   3.288   3.449   3.481
  3.512   4.144   4.440   4.913   5.061   5.412
 --------------------------------------------------------------
 
          Ground-State Mulliken Net Atomic Charges

     Atom                 Charge (a.u.)    Spin (a.u.)
  --------------------------------------------------------
      1 C                     1.099095       0.000000
      2 F                    -0.104036       0.000000
      3 F                    -0.127766       0.000000
      4 F                    -0.851172       0.000000
      5 F                    -0.016121       0.000000
  --------------------------------------------------------
  Sum of atomic charges =     0.000000
  Sum of spin   charges =     0.000000

 -----------------------------------------------------------------
                    Cartesian Multipole Moments
 -----------------------------------------------------------------
    Charge (ESU x 10^10)
                 0.0000
    Dipole Moment (Debye)
         X       4.9738      Y       8.6219      Z      -4.9369
       Tot      11.1108
    Quadrupole Moments (Debye-Ang)
        XX     -33.0602     XY      -0.4438     YY       7.2951
        XZ       6.5421     YZ      -6.5390     ZZ     -24.9181
    Octopole Moments (Debye-Ang^2)
       XXX      68.8973    XXY     -57.3423    XYY       6.0588
       YYY     -67.1743    XXZ     -10.6761    XYZ       6.1231
       YYZ     -14.6815    XZZ      20.5520    YZZ     -52.1697
       ZZZ      -5.4836
    Hexadecapole Moments (Debye-Ang^3)
      XXXX    -211.6936   XXXY      97.3066   XXYY    -171.7248
      XYYY      49.2866   YYYY    -594.6697   XXXZ      34.7694
      XXYZ      -1.1406   XYYZ      14.9547   YYYZ     -19.2073
      XXZZ     -52.7454   XYZZ      28.8192   YYZZ    -154.4019
      XZZZ      23.5856   YZZZ      16.1171   ZZZZ     -96.4461
 -----------------------------------------------------------------
Archival summary:
1\1\tp-linux1\SP\HF\6-31G*\41\thomas\SatMar1814:22:182017SatMar1814:22:182017\0\\#,HF,6-31G*,\\0,1\C\F,1,1.1466\F,1,1.20062,2,123.003\F,1,1.25155,2,119.028,3,-172.543,0\F,4,2.56697,1,83.7974,2,-83.7607,0\\HF=-435.37145\\@

 Total job time:  1553.92s(wall), 2582.62s(cpu) 
 Sat Mar 18 14:22:18 2017

        *************************************************************
        *                                                           *
        *  Thank you very much for using Q-Chem.  Have a nice day.  *
        *                                                           *
        *************************************************************


0 sent ACK to 0 
now end server 0 ... 
cleanup process ... done
