
Running Job 1 of 2 ddtraj4t29.inp
qchem ddtraj4t29.inp_8058.0 /scratch/qchem/qchem8058/ 1
/mnt/software/qchem/bin/mpi/mpirun_qchem -machinefile /mnt/software/qchem/bin/mpi/machines -np 1 /mnt/software/qchem/exe/qcprog.exe ddtraj4t29.inp_8058.0 /scratch/qchem/qchem8058/

Process 0 of 1 is on tp-linux1 - thread support 0
initial socket setup ...start
initial socket setup ...done 
now start server 0 ... 

cmd = ssh tp-linux1 /mnt/software/qchem/bin/get_hostid 1624656975 > /scratch/qchem/qchem8058/lic.dat
                  Welcome to Q-Chem
     A Quantum Leap Into The Future Of Chemistry


 Q-Chem 4.3, Q-Chem, Inc., Pleasanton, CA (2015)

 Y. Shao,  Z. Gan,  E. Epifanovsky,  A. T. B. Gilbert,  M. Wormit,  
 J. Kussmann,  A. W. Lange,  A. Behn,  J. Deng,  X. Feng,  D. Ghosh,  
 M. Goldey,  P. R. Horn,  L. D. Jacobson,  I. Kaliman,  R. Z. Khaliullin,  
 T. Kus,  A. Landau,  J. Liu,  E. I. Proynov,  Y. M. Rhee,  R. M. Richard,  
 M. A. Rohrdanz,  R. P. Steele,  E. J. Sundstrom,  H. L. Woodcock III,  
 P. M. Zimmerman,  D. Zuev,  B. Albrecht,  E. Alguire,  B. Austin,  
 S. A. Baeppler,  G. J. O. Beran,  Y. A. Bernard,  E. Berquist,  
 K. Brandhorst,  K. B. Bravaya,  S. T. Brown,  D. Casanova,  C.-M. Chang,  
 Y. Chen,  S. H. Chien,  K. D. Closser,  D. L. Crittenden,  M. Diedenhofen,  
 R. A. DiStasio Jr.,  H. Do,  A. D. Dutoi,  R. G. Edgar,  P.-T. Fang,  
 S. Fatehi,  Q. Feng,  L. Fusti-Molnar,  A. Ghysels,  
 A. Golubeva-Zadorozhnaya,  J. Gomes,  A. Gunina,  M. W. D. Hanson-Heine,  
 P. H. P. Harbach,  A. W. Hauser,  E. G. Hohenstein,  Z. C. Holden,  K. Hui,  
 T.-C. Jagau,  H. Ji,  B. Kaduk,  K. Khistyaev,  Jaehoon Kim,  Jihan Kim,  
 R. A. King,  P. Klunzinger,  D. Kosenkov,  T. Kowalczyk,  C. M. Krauter,  
 K. U. Lao,  A. Laurent,  K. V. Lawler,  S. Lehtola,  S. V. Levchenko,  
 C. Y. Lin,  Y.-S. Lin,  F. Liu,  E. Livshits,  R. C. Lochan,  A. Luenser,  
 P. Manohar,  S. F. Manzer,  S.-P. Mao,  N. Mardirossian,  A. V. Marenich,  
 L. A. Martinez-Martinez,  S. A. Maurer,  N. J. Mayhall,  K. Nanda,  
 C. M. Oana,  R. Olivares-Amaya,  D. P. O'Neill,  J. A. Parkhill,  
 T. M. Perrine,  R. Peverati,  P. A. Pieniazek,  F. Plasser,  A. Prociuk,  
 D. R. Rehn,  E. Rosta,  N. J. Russ,  N. Sergueev,  S. M. Sharada,  
 S. Sharma,  D. W. Small,  A. Sodt,  T. Stauch,  T. Stein,  D. Stuck,  
 Y.-C. Su,  A. J. W. Thom,  T. Tsuchimochi,  L. Vogt,  O. Vydrov,  T. Wang,  
 M. A. Watson,  J. Wenzel,  A. White,  C. F. Williams,  V. Vanovschi,  
 S. Yeganeh,  S. R. Yost,  Z.-Q. You,  I. Y. Zhang,  X. Zhang,  Y. Zhao,  
 B. R. Brooks,  G. K. L. Chan,  D. M. Chipman,  C. J. Cramer,  
 W. A. Goddard III,  M. S. Gordon,  W. J. Hehre,  A. Klamt,  
 H. F. Schaefer III,  M. W. Schmidt,  C. D. Sherrill,  D. G. Truhlar,  
 A. Warshel,  X. Xu,  A. Aspuru-Guzik,  R. Baer,  A. T. Bell,  N. A. Besley,  
 J.-D. Chai,  A. Dreuw,  B. D. Dunietz,  T. R. Furlani,  S. R. Gwaltney,  
 C.-P. Hsu,  Y. Jung,  J. Kong,  D. S. Lambrecht,  W. Liang,  C. Ochsenfeld,  
 V. A. Rassolov,  L. V. Slipchenko,  J. E. Subotnik,  T. Van Voorhis,  
 J. M. Herbert,  A. I. Krylov,  P. M. W. Gill,  M. Head-Gordon

 Contributors to earlier versions of Q-Chem not listed above: 
 R. D. Adamson,  J. Baker,  E. F. C. Byrd,  A. K. Chakraborty,  C.-L. Cheng,  
 H. Dachsel,  R. J. Doerksen,  G. Hawkins,  A. Heyden,  S. Hirata,  
 G. Kedziora,  F. J. Keil,  C. Kelley,  P. P. Korambath,  W. Kurlancheek,  
 A. M. Lee,  M. S. Lee,  D. Liotard,  I. Lotan,  P. E. Maslen,  N. Nair,  
 D. Neuhauser,  R. Olson,  B. Peters,  J. Ritchie,  N. E. Schultz,  
 N. Shenvi,  A. C. Simmonett,  K. S. Thanthiriwatte,  Q. Wu,  W. Zhang

 Please cite Q-Chem as follows:
 Y. Shao et al., Mol. Phys. 113, 184-215 (2015)
 DOI: 10.1080/00268976.2014.952696

 Q-Chem 4.3.0 for Intel X86 Linux

 Parts of Q-Chem use Armadillo 5.200.1 (Boston Tea Smuggler).
 http://arma.sourceforge.net/

 Q-Chem begins on Sun Mar 19 18:07:34 2017  

Host: 
0

     Scratch files written to /scratch/qchem/qchem8058//
 Nov1815 1189b_ 19540  19532 5443   
 Parallel job on  1  processors
Processing $rem in /mnt/software/qchem/config/preferences.
 MEM_TOTAL  2000 

Checking the input file for inconsistencies... 	...done.

--------------------------------------------------------------
User input:
--------------------------------------------------------------
$comment
XAS calculation for the 2b valence excited for water using cvs-adc(2)-x + 6-311+G* basis set
job 1 - determination of HF orbitals
$end

$molecule
0 1
6  -0.435731  2.808948  -0.220534
9  0.688401  2.565426  -0.117273
9  -1.077416  3.219568  0.735537
9  -1.544649  0.627012  0.786976
9  -1.015738  2.685466  -1.267306
$end

$rem
jobtype      sp
sym_ignore true
exchange     hf
basis        6-31G*
unrestricted true
$end

--------------------------------------------------------------
 ----------------------------------------------------------------
             Standard Nuclear Orientation (Angstroms)
    I     Atom           X                Y                Z
 ----------------------------------------------------------------
    1      C      -0.4357310000     2.8089480000    -0.2205340000
    2      F       0.6884010000     2.5654260000    -0.1172730000
    3      F      -1.0774160000     3.2195680000     0.7355370000
    4      F      -1.5446490000     0.6270120000     0.7869760000
    5      F      -1.0157380000     2.6854660000    -1.2673060000
 ----------------------------------------------------------------
 Nuclear Repulsion Energy =   189.5170564639 hartrees
 There are       21 alpha and       21 beta electrons
 Requested basis set is 6-31G(d)
 There are 20 shells and 75 basis functions

 Total QAlloc Memory Limit   2000 MB
 Mega-Array Size        61 MB
 MEM_STATIC part        62 MB

                       Distance Matrix (Angstroms)
             C (  1)   F (  2)   F (  3)   F (  4)
   F (  2)  1.154833
   F (  3)  1.222473  2.067195
   F (  4)  2.646813  3.092188  2.634824
   F (  5)  1.203074  2.059387  2.073752  2.955851
 
 tim1(1): 
  3.999999999999997E-003
 tim1(2): 
  0.000000000000000E+000
 A cutoff of  1.0D-08 yielded    190 shell pairs
 There are      2894 function pairs
 
 -------------------------------------------------------
 OpenMP Integral Computing Module                       
 Release: version 1.0, May 2013, Q-Chem Inc. Pittsburgh 
 -------------------------------------------------------
 Integral Job Info:
 Integral job number is                      11
 Integral operator is                         1
 short-range coefficients                     0
 long-range coefficients              100000000
 Omega coefficients                           0
 if combine SR and LR in K                    0
 Integral screening is                        0
 Integral computing path is                   2
 max size of driver memory is            800000
 size of driver memory is                593474
 size of scratch memory is              2260544
 max col of scratch BK array               1296
 max len of scratch array in speh3          155
 max len of scratch index in speh4           18
 max int batch size is                      520
 min int batch size is                       52
 fixed nKL is                                52
 max L of basis functions is                  2
 order of int derivative is                   0
 number of shells is                         20
 number of basis is                          75
 number of cartesian basis is                75
 number of contracted shell pairs           190
 number of primitive shell pairs            923
 maxK2 (contraction) of shell pair           36
 max number of K2 of shell pair               1
 max number of CS2 of shell pair             29
 max number of PS2 of shell pair            180
 mem total for path MDJ                   19336
 -------------------------------------------------------
 Smallest overlap matrix eigenvalue = 3.31E-03

 Scale SEOQF with 1.000000e-01/1.000000e-01/1.000000e+00

 Standard Electronic Orientation quadrupole field applied
 Nucleus-field energy     =    -0.0000000063 hartrees
 Guess from superposition of atomic densities
 Warning:  Energy on first SCF cycle will be non-variational
 An unrestricted Hartree-Fock SCF calculation will be
 performed using Pulay DIIS extrapolation
 SCF converges when DIIS error is below 1.0E-05
 using 8 threads for integral computing 
 ---------------------------------------
  Cycle       Energy         DIIS Error
 ---------------------------------------
    1    -436.6404320256      9.82E-02
    2    -435.1481033636      2.09E-02
    3    -435.3003640411      1.33E-02
    4    -435.3837052067      1.66E-03
    5    -435.3854838806      4.68E-04
    6    -435.3857524548      1.50E-04
    7    -435.3857894995      4.99E-05
    8    -435.3857985906      2.17E-05
    9    -435.3857999827      6.29E-06 Convergence criterion met
 ---------------------------------------
 <S^2> = 0.0000
 SCF time:  CPU 9.50 s  wall 2.20 s
 SCF   energy in the final basis set = -435.3857999827
 Total energy in the final basis set = -435.3857999827
 
 --------------------------------------------------------------
 
                    Orbital Energies (a.u.)
 --------------------------------------------------------------
 
 Alpha MOs
 -- Occupied --
-26.571 -26.541 -26.517 -25.977 -11.741  -2.003  -1.896  -1.850
 -1.229  -1.138  -1.064  -1.053  -1.007  -0.884  -0.879  -0.866
 -0.832  -0.818  -0.339  -0.339  -0.327
 -- Virtual --
  0.041   0.228   0.415   0.434   0.564   0.611   0.673   0.703
  1.158   1.192   1.215   1.300   1.334   1.408   1.443   1.456
  1.489   1.494   1.506   1.556   1.594   1.730   1.764   1.806
  1.851   1.921   1.947   1.956   1.996   2.111   2.123   2.173
  2.189   2.210   2.291   2.364   2.406   2.407   2.424   2.442
  2.455   2.706   2.915   2.962   3.235   3.301   3.476   3.495
  3.527   4.143   4.503   5.095   5.181   5.359
 
 Beta MOs
 -- Occupied --
-26.571 -26.541 -26.517 -25.977 -11.741  -2.003  -1.896  -1.850
 -1.229  -1.138  -1.064  -1.053  -1.007  -0.884  -0.879  -0.866
 -0.832  -0.818  -0.339  -0.339  -0.327
 -- Virtual --
  0.041   0.228   0.415   0.434   0.564   0.611   0.673   0.703
  1.158   1.192   1.215   1.300   1.334   1.408   1.443   1.456
  1.489   1.494   1.506   1.556   1.594   1.730   1.764   1.806
  1.851   1.921   1.947   1.956   1.996   2.111   2.123   2.173
  2.189   2.210   2.291   2.364   2.406   2.407   2.424   2.442
  2.455   2.706   2.915   2.962   3.235   3.301   3.476   3.495
  3.527   4.143   4.503   5.095   5.181   5.359
 --------------------------------------------------------------
 
          Ground-State Mulliken Net Atomic Charges

     Atom                 Charge (a.u.)    Spin (a.u.)
  --------------------------------------------------------
      1 C                     1.085974       0.000000
      2 F                    -0.037536       0.000000
      3 F                    -0.107568       0.000000
      4 F                    -0.840637       0.000000
      5 F                    -0.100233       0.000000
  --------------------------------------------------------
  Sum of atomic charges =     0.000000
  Sum of spin   charges =     0.000000

 -----------------------------------------------------------------
                    Cartesian Multipole Moments
 -----------------------------------------------------------------
    Charge (ESU x 10^10)
                 0.0000
    Dipole Moment (Debye)
         X       4.6983      Y       8.7180      Z      -4.0589
       Tot      10.7029
    Quadrupole Moments (Debye-Ang)
        XX     -31.3431     XY      -0.0463     YY       7.8582
        XZ       5.1126     YZ      -4.8120     ZZ     -24.8932
    Octopole Moments (Debye-Ang^2)
       XXX      64.1111    XXY     -56.1274    XYY       7.7806
       YYY     -63.9088    XXZ      -7.9500    XYZ       4.0759
       YYZ     -10.2238    XZZ      19.6519    YZZ     -52.8558
       ZZZ      -3.8431
    Hexadecapole Moments (Debye-Ang^3)
      XXXX    -187.7732   XXXY      99.3572   XXYY    -168.5495
      XYYY      60.3253   YYYY    -580.5155   XXXZ      24.5760
      XXYZ       0.7036   XYYZ       8.6656   YYYZ      -9.8912
      XXZZ     -47.3404   XYZZ      30.9304   YYZZ    -156.1346
      XZZZ      16.7040   YZZZ      15.7291   ZZZZ     -91.4335
 -----------------------------------------------------------------
Archival summary:
1\1\tp-linux1\SP\HF\6-31G*\41\thomas\SunMar1918:07:372017SunMar1918:07:372017\0\\#,HF,6-31G*,\\0,1\C\F,1,1.15483\F,1,1.20307,2,121.698\F,1,1.22247,2,120.787,3,179.119,0\F,4,2.63482,1,77.1644,2,95.2808,0\\HF=-435.3858\\@

 Total job time:  2.53s(wall), 11.24s(cpu) 
 Sun Mar 19 18:07:37 2017

        *************************************************************
        *                                                           *
        *  Thank you very much for using Q-Chem.  Have a nice day.  *
        *                                                           *
        *************************************************************


0 sent ACK to 0 
now end server 0 ... 
cleanup process ... done

Running Job 2 of 2 ddtraj4t29.inp
qchem ddtraj4t29.inp_8058.1 /scratch/qchem/qchem8058/ 1
/mnt/software/qchem/bin/mpi/mpirun_qchem -machinefile /mnt/software/qchem/bin/mpi/machines -np 1 /mnt/software/qchem/exe/qcprog.exe ddtraj4t29.inp_8058.1 /scratch/qchem/qchem8058/

Process 0 of 1 is on tp-linux1 - thread support 0
initial socket setup ...start
initial socket setup ...done 
now start server 0 ... 

cmd = ssh tp-linux1 /mnt/software/qchem/bin/get_hostid 1183417295 > /scratch/qchem/qchem8058/lic.dat
                  Welcome to Q-Chem
     A Quantum Leap Into The Future Of Chemistry


 Q-Chem 4.3, Q-Chem, Inc., Pleasanton, CA (2015)

 Y. Shao,  Z. Gan,  E. Epifanovsky,  A. T. B. Gilbert,  M. Wormit,  
 J. Kussmann,  A. W. Lange,  A. Behn,  J. Deng,  X. Feng,  D. Ghosh,  
 M. Goldey,  P. R. Horn,  L. D. Jacobson,  I. Kaliman,  R. Z. Khaliullin,  
 T. Kus,  A. Landau,  J. Liu,  E. I. Proynov,  Y. M. Rhee,  R. M. Richard,  
 M. A. Rohrdanz,  R. P. Steele,  E. J. Sundstrom,  H. L. Woodcock III,  
 P. M. Zimmerman,  D. Zuev,  B. Albrecht,  E. Alguire,  B. Austin,  
 S. A. Baeppler,  G. J. O. Beran,  Y. A. Bernard,  E. Berquist,  
 K. Brandhorst,  K. B. Bravaya,  S. T. Brown,  D. Casanova,  C.-M. Chang,  
 Y. Chen,  S. H. Chien,  K. D. Closser,  D. L. Crittenden,  M. Diedenhofen,  
 R. A. DiStasio Jr.,  H. Do,  A. D. Dutoi,  R. G. Edgar,  P.-T. Fang,  
 S. Fatehi,  Q. Feng,  L. Fusti-Molnar,  A. Ghysels,  
 A. Golubeva-Zadorozhnaya,  J. Gomes,  A. Gunina,  M. W. D. Hanson-Heine,  
 P. H. P. Harbach,  A. W. Hauser,  E. G. Hohenstein,  Z. C. Holden,  K. Hui,  
 T.-C. Jagau,  H. Ji,  B. Kaduk,  K. Khistyaev,  Jaehoon Kim,  Jihan Kim,  
 R. A. King,  P. Klunzinger,  D. Kosenkov,  T. Kowalczyk,  C. M. Krauter,  
 K. U. Lao,  A. Laurent,  K. V. Lawler,  S. Lehtola,  S. V. Levchenko,  
 C. Y. Lin,  Y.-S. Lin,  F. Liu,  E. Livshits,  R. C. Lochan,  A. Luenser,  
 P. Manohar,  S. F. Manzer,  S.-P. Mao,  N. Mardirossian,  A. V. Marenich,  
 L. A. Martinez-Martinez,  S. A. Maurer,  N. J. Mayhall,  K. Nanda,  
 C. M. Oana,  R. Olivares-Amaya,  D. P. O'Neill,  J. A. Parkhill,  
 T. M. Perrine,  R. Peverati,  P. A. Pieniazek,  F. Plasser,  A. Prociuk,  
 D. R. Rehn,  E. Rosta,  N. J. Russ,  N. Sergueev,  S. M. Sharada,  
 S. Sharma,  D. W. Small,  A. Sodt,  T. Stauch,  T. Stein,  D. Stuck,  
 Y.-C. Su,  A. J. W. Thom,  T. Tsuchimochi,  L. Vogt,  O. Vydrov,  T. Wang,  
 M. A. Watson,  J. Wenzel,  A. White,  C. F. Williams,  V. Vanovschi,  
 S. Yeganeh,  S. R. Yost,  Z.-Q. You,  I. Y. Zhang,  X. Zhang,  Y. Zhao,  
 B. R. Brooks,  G. K. L. Chan,  D. M. Chipman,  C. J. Cramer,  
 W. A. Goddard III,  M. S. Gordon,  W. J. Hehre,  A. Klamt,  
 H. F. Schaefer III,  M. W. Schmidt,  C. D. Sherrill,  D. G. Truhlar,  
 A. Warshel,  X. Xu,  A. Aspuru-Guzik,  R. Baer,  A. T. Bell,  N. A. Besley,  
 J.-D. Chai,  A. Dreuw,  B. D. Dunietz,  T. R. Furlani,  S. R. Gwaltney,  
 C.-P. Hsu,  Y. Jung,  J. Kong,  D. S. Lambrecht,  W. Liang,  C. Ochsenfeld,  
 V. A. Rassolov,  L. V. Slipchenko,  J. E. Subotnik,  T. Van Voorhis,  
 J. M. Herbert,  A. I. Krylov,  P. M. W. Gill,  M. Head-Gordon

 Contributors to earlier versions of Q-Chem not listed above: 
 R. D. Adamson,  J. Baker,  E. F. C. Byrd,  A. K. Chakraborty,  C.-L. Cheng,  
 H. Dachsel,  R. J. Doerksen,  G. Hawkins,  A. Heyden,  S. Hirata,  
 G. Kedziora,  F. J. Keil,  C. Kelley,  P. P. Korambath,  W. Kurlancheek,  
 A. M. Lee,  M. S. Lee,  D. Liotard,  I. Lotan,  P. E. Maslen,  N. Nair,  
 D. Neuhauser,  R. Olson,  B. Peters,  J. Ritchie,  N. E. Schultz,  
 N. Shenvi,  A. C. Simmonett,  K. S. Thanthiriwatte,  Q. Wu,  W. Zhang

 Please cite Q-Chem as follows:
 Y. Shao et al., Mol. Phys. 113, 184-215 (2015)
 DOI: 10.1080/00268976.2014.952696

 Q-Chem 4.3.0 for Intel X86 Linux

 Parts of Q-Chem use Armadillo 5.200.1 (Boston Tea Smuggler).
 http://arma.sourceforge.net/

 Q-Chem begins on Sun Mar 19 18:07:40 2017  

Host: 
0

     Scratch files written to /scratch/qchem/qchem8058//
 Nov1815 1189b_ 19540  19532 5443   
 Parallel job on  1  processors
Processing $rem in /mnt/software/qchem/config/preferences.
 MEM_TOTAL  2000 

Checking the input file for inconsistencies... 	...done.

--------------------------------------------------------------
User input:
--------------------------------------------------------------

$comment
job3 - cvs-adc(2) calculation
$end

$molecule
read
$end

$rem
mem_total 3000
mem_static 1500
sym_ignore true
scf_guess read
method cvs-adc(2)
basis 6-31G*
ee_singlets 20
cc_rest_occ 5                  !only excitations from the lowest N orbitals
unrestricted  true
max_scf_cycles 200
$end
--------------------------------------------------------------
 ----------------------------------------------------------------
             Standard Nuclear Orientation (Angstroms)
    I     Atom           X                Y                Z
 ----------------------------------------------------------------
    1      C      -0.4357310000     2.8089480000    -0.2205340000
    2      F       0.6884010000     2.5654260000    -0.1172730000
    3      F      -1.0774160000     3.2195680000     0.7355370000
    4      F      -1.5446490000     0.6270120000     0.7869760000
    5      F      -1.0157380000     2.6854660000    -1.2673060000
 ----------------------------------------------------------------
 Nuclear Repulsion Energy =   189.5170564639 hartrees
 There are       21 alpha and       21 beta electrons
 Requested basis set is 6-31G(d)
 There are 20 shells and 75 basis functions

 Total QAlloc Memory Limit   3000 MB
 Mega-Array Size      1467 MB
 MEM_STATIC part      1500 MB

                       Distance Matrix (Angstroms)
             C (  1)   F (  2)   F (  3)   F (  4)
   F (  2)  1.154833
   F (  3)  1.222473  2.067195
   F (  4)  2.646813  3.092188  2.634824
   F (  5)  1.203074  2.059387  2.073752  2.955851
 
 tim1(1): 
  0.000000000000000E+000
 tim1(2): 
  0.000000000000000E+000
 A cutoff of  1.0D-11 yielded    197 shell pairs
 There are      2954 function pairs
 
 -------------------------------------------------------
 OpenMP Integral Computing Module                       
 Release: version 1.0, May 2013, Q-Chem Inc. Pittsburgh 
 -------------------------------------------------------
 Integral Job Info:
 Integral job number is                      11
 Integral operator is                         1
 short-range coefficients                     0
 long-range coefficients              100000000
 Omega coefficients                           0
 if combine SR and LR in K                    0
 Integral screening is                        0
 Integral computing path is                   2
 max size of driver memory is            800000
 size of driver memory is                593474
 size of scratch memory is              2260544
 max col of scratch BK array               1296
 max len of scratch array in speh3          155
 max len of scratch index in speh4           18
 max int batch size is                      520
 min int batch size is                       52
 fixed nKL is                                52
 max L of basis functions is                  2
 order of int derivative is                   0
 number of shells is                         20
 number of basis is                          75
 number of cartesian basis is                75
 number of contracted shell pairs           197
 number of primitive shell pairs           1002
 maxK2 (contraction) of shell pair           36
 max number of K2 of shell pair               1
 max number of CS2 of shell pair             32
 max number of PS2 of shell pair            192
 mem total for path MDJ                   21832
 -------------------------------------------------------
 Smallest overlap matrix eigenvalue = 3.31E-03

 Scale SEOQF with 1.000000e-01/1.000000e-01/1.000000e+00

 Standard Electronic Orientation quadrupole field applied
 Nucleus-field energy     =    -0.0000000063 hartrees
 Guess MOs from SCF MO coefficient file
 Reading MOs from coefficient file
 Reading MOs from coefficient file
 An unrestricted Hartree-Fock SCF calculation will be
 performed using Pulay DIIS extrapolation
 SCF converges when DIIS error is below 1.0E-08
 using 8 threads for integral computing 
 ---------------------------------------
  Cycle       Energy         DIIS Error
 ---------------------------------------
    1    -435.3858001792      2.30E-06
    2    -435.3858001861      1.34E-06
    3    -435.3858001883      6.10E-07
    4    -435.3858001899      8.82E-08
    5    -435.3858001899      3.41E-08
    6    -435.3858001899      1.20E-08
    7    -435.3858001899      3.16E-09 Convergence criterion met
 ---------------------------------------
 <S^2> = 0.0000
 SCF time:  CPU 6.55 s  wall 1.86 s
 SCF   energy in the final basis set = -435.3858001899
 Total energy in the final basis set = -435.3858001899
================================================================================
|                                                                              |
|                                 A D C  M A N                                 |
|                                                                              |
 ------------------------------------------------------------------------------ 
|                                                                              |
| Components:                                                                  |
|                                                                              |
| - libvmm - 1.2-release                                                       |
|   Authors:                                                                   |
|   Evgeny Epifanovsky, Ilya Kaliman                                           |
|                                                                              |
| - libtensor - 2.4-trunk                                                      |
|   Authors:                                                                   |
|   Evgeny Epifanovsky, Michael Wormit, Dmitry Zuev, Sam Manzer                |
|                                                                              |
| - libwfa - 1.1-beta                                                          |
|   Authors:                                                                   |
|   Felix Plasser, Stefanie Baeppler, Benjamin Thomitzni, Michael Wormit       |
|                                                                              |
| - libadc - 1.0-beta                                                          |
|   Authors:                                                                   |
|   Michael Wormit, Philipp H. P. Harbach, Caroline Krauter, Dirk Rehn,        |
|   Matthias Schneider, Jan Wenzel                                             |
|                                                                              |
| - adcman - 2.4-beta                                                          |
|   Authors:                                                                   |
|   Michael Wormit, Philipp H. P. Harbach, Caroline Krauter, Dirk Rehn,        |
|   Jan Wenzel, Andreas Dreuw                                                  |
|                                                                              |
| Authors of earlier versions of ADCMAN:                                       |
| Andreas Dreuw, Jan Hendrik Starcke, Dirk Rehn, Michael Wormit                |
|                                                                              |
================================================================================

 
 Alpha MOs, Unrestricted
 -- Occupied --                  
-26.571 -26.541 -26.517 -25.977 -11.741  -2.003  -1.896  -1.850
  1 A     2 A     3 A     4 A     5 A     6 A     7 A     8 A                  
 -1.229  -1.138  -1.064  -1.053  -1.007  -0.884  -0.879  -0.866
  9 A    10 A    11 A    12 A    13 A    14 A    15 A    16 A                  
 -0.832  -0.818  -0.339  -0.339  -0.327
 17 A    18 A    19 A    20 A    21 A                                          
 -- Virtual --                   
  0.041   0.228   0.415   0.434   0.564   0.611   0.673   0.703
 22 A    23 A    24 A    25 A    26 A    27 A    28 A    29 A                  
  1.158   1.192   1.215   1.300   1.334   1.408   1.443   1.456
 30 A    31 A    32 A    33 A    34 A    35 A    36 A    37 A                  
  1.489   1.494   1.506   1.556   1.594   1.730   1.764   1.806
 38 A    39 A    40 A    41 A    42 A    43 A    44 A    45 A                  
  1.851   1.921   1.947   1.956   1.996   2.111   2.123   2.173
 46 A    47 A    48 A    49 A    50 A    51 A    52 A    53 A                  
  2.189   2.210   2.291   2.364   2.406   2.407   2.424   2.442
 54 A    55 A    56 A    57 A    58 A    59 A    60 A    61 A                  
  2.455   2.706   2.915   2.962   3.235   3.301   3.476   3.495
 62 A    63 A    64 A    65 A    66 A    67 A    68 A    69 A                  
  3.527   4.143   4.503   5.095   5.181   5.359
 70 A    71 A    72 A    73 A    74 A    75 A                                  
 
 Beta MOs, Unrestricted
 -- Occupied --                  
-26.571 -26.541 -26.517 -25.977 -11.741  -2.003  -1.896  -1.850
  1 A     2 A     3 A     4 A     5 A     6 A     7 A     8 A                  
 -1.229  -1.138  -1.064  -1.053  -1.007  -0.884  -0.879  -0.866
  9 A    10 A    11 A    12 A    13 A    14 A    15 A    16 A                  
 -0.832  -0.818  -0.339  -0.339  -0.327
 17 A    18 A    19 A    20 A    21 A                                          
 -- Virtual --                   
  0.041   0.228   0.415   0.434   0.564   0.611   0.673   0.703
 22 A    23 A    24 A    25 A    26 A    27 A    28 A    29 A                  
  1.158   1.192   1.215   1.300   1.334   1.408   1.443   1.456
 30 A    31 A    32 A    33 A    34 A    35 A    36 A    37 A                  
  1.489   1.494   1.506   1.556   1.594   1.730   1.764   1.806
 38 A    39 A    40 A    41 A    42 A    43 A    44 A    45 A                  
  1.851   1.921   1.947   1.956   1.996   2.111   2.123   2.173
 46 A    47 A    48 A    49 A    50 A    51 A    52 A    53 A                  
  2.189   2.210   2.291   2.364   2.406   2.407   2.424   2.442
 54 A    55 A    56 A    57 A    58 A    59 A    60 A    61 A                  
  2.455   2.706   2.915   2.962   3.235   3.301   3.476   3.495
 62 A    63 A    64 A    65 A    66 A    67 A    68 A    69 A                  
  3.527   4.143   4.503   5.095   5.181   5.359
 70 A    71 A    72 A    73 A    74 A    75 A                                  
 

--------------------------------------------------------------------------------
                                   HF Summary                                   
--------------------------------------------------------------------------------
  Energy:                                                 -435.3858001899 a.u.
  Dip. moment [a.u.]:                  [ -56.951104,  183.144389,    1.442422]
  Total dipole [Debye]:                                             487.507967
  <r^2> [a.u.]:                        [ 189.752747,  952.303013,  108.902901]
  Total <r^2> [a.u.]:                                              1250.958662
--------------------------------------------------------------------------------

--------------------------------------------------------------------------------
                                 MP(2) Summary                                  
--------------------------------------------------------------------------------
  Energy contribution:                                      -0.7966316846 a.u.
  Total energy:                                           -436.1824318745 a.u.
  Dip. moment [a.u.]:                  [ -56.817992,  183.347637,    1.332877]
  Total dipole [Debye]:                                             487.899014
  <r^2> [a.u.]:                        [ 189.147600,  953.765120,  108.639208]
  Total <r^2> [a.u.]:                                              1251.551928
--------------------------------------------------------------------------------
  Starting Davidson ... 
--------------------------------------------------------------------------------
   It NVec Conv  Avg. Norm  Max. Norm  Conv. states           Remark
--------------------------------------------------------------------------------
        20    0  2.090e-01  1.063e+00 10.9977 n n n n n n n n Guess.
    1   40    0  2.697e-02  2.250e-01 10.8422 n n n n n n n n 
    2   60    0  6.981e-03  5.974e-02 10.8410 n n n n n n n n 
    3   80    0  1.874e-03  1.832e-02 10.8410 n n n n n n n n 
    4  100    0  1.330e-03  1.437e-02 10.8410 n n n n n n n n 
    5   40    0  8.246e-04  1.013e-02 10.8410 n n n n n n n n Subspace collapsed.
    6   60    0  9.791e-04  1.373e-02 10.8410 n n n n n n n n 
    7   80    0  1.299e-03  2.010e-02 10.8410 n n n n n n n n 
    8  100    2  9.040e-04  1.275e-02 10.8410 y y n n n n n n 
    9   40    6  3.877e-04  5.514e-03 10.8410 y y n n y y y y Subspace collapsed.
   10   60    6  1.941e-04  2.626e-03 10.8410 y y n n y y y y 
   11   80   12  1.314e-04  1.808e-03 10.8410 y y y y y y y y 
   12  100   14  1.438e-04  2.222e-03 10.8410 y y y y y y y y 
   13   40   14  1.261e-04  1.919e-03 10.8410 y y y y y y y y Subspace collapsed.
   14   60   15  1.886e-04  3.441e-03 10.8410 y y y y y y y y 
   15   80   15  1.830e-02  3.630e-01 10.8410 y y y y y y y y 
   16  100   15  1.510e-02  3.019e-01 10.8410 y y y y y y y y 
   17   20   15  1.510e-02  3.019e-01 10.8410 y y y y y y y y Subspace collapsed.
   18   20   15  1.510e-02  3.019e-01 10.8410 y y y y y y y y 
   19   40   15  1.337e-02  2.673e-01 10.8410 y y y y y y y y 
   20   58   15  1.170e-02  2.339e-01 10.8410 y y y y y y y y 
   21   60   15  1.168e-02  2.337e-01 10.8410 y y y y y y y y 
   22   76   15  1.076e-02  2.152e-01 10.8410 y y y y y y y y 
   23   90   15  9.503e-03  1.901e-01 10.8410 y y y y y y y y 
   24  100   15  9.460e-03  1.892e-01 10.8410 y y y y y y y y 
   25   32   15  8.982e-03  1.796e-01 10.8410 y y y y y y y y Subspace collapsed.
   26   44   15  8.882e-03  1.776e-01 10.8410 y y y y y y y y 
   27   47   15  8.896e-03  1.779e-01 10.8410 y y y y y y y y 
   28   48   15  8.723e-03  1.745e-01 10.8410 y y y y y y y y 
   29   49   15  8.748e-03  1.750e-01 10.8410 y y y y y y y y 
   30   49   15  8.748e-03  1.750e-01 10.8410 y y y y y y y y 
   31   67   15  8.010e-03  1.602e-01 10.8410 y y y y y y y y 
   32   73   15  7.574e-03  1.515e-01 10.8410 y y y y y y y y 
   33   79   16  7.192e-03  1.438e-01 10.8410 y y y y y y y y 
   34   85   16  6.433e-03  1.287e-01 10.8410 y y y y y y y y 
   35   91   17  1.549e-02  2.802e-01 10.8410 y y y y y y y y 
   36   97   17  1.372e-02  2.427e-01 10.8410 y y y y y y y y 
   37  100   17  1.338e-02  2.357e-01 10.8410 y y y y y y y y 
   38   25   17  1.399e-02  2.493e-01 10.8410 y y y y y y y y Subspace collapsed.
   39   25   17  1.399e-02  2.493e-01 10.8410 y y y y y y y y 
   40   28   17  1.396e-02  2.486e-01 10.8410 y y y y y y y y 
   41   28   17  1.396e-02  2.486e-01 10.8410 y y y y y y y y 
   42   31   17  1.395e-02  2.484e-01 10.8410 y y y y y y y y 
   43   31   17  1.395e-02  2.484e-01 10.8410 y y y y y y y y 
   44   32   17  1.393e-02  2.482e-01 10.8410 y y y y y y y y 
   45   32   17  1.393e-02  2.482e-01 10.8410 y y y y y y y y 
   46   32   17  1.393e-02  2.482e-01 10.8410 y y y y y y y y 
   47   52   18  1.028e-02  1.646e-01 10.8410 y y y y y y y y 
   48   57   18  1.009e-02  1.611e-01 10.8410 y y y y y y y y 
   49   62   17  9.529e-03  1.488e-01 10.8410 y y y y y y y y 
   50   67   17  1.516e-02  2.412e-01 10.8410 y y y y y y y y 
   51   72   17  1.374e-02  2.096e-01 10.8410 y y y y y y y y 
   52   77   17  1.364e-02  2.140e-01 10.8410 y y y y y y y y 
   53   82   17  1.222e-02  1.829e-01 10.8410 y y y y y y y y 
   54   87   17  1.210e-02  1.829e-01 10.8410 y y y y y y y y 
   55   92   17  1.140e-02  1.706e-01 10.8410 y y y y y y y y 
   56   92   17  1.140e-02  1.706e-01 10.8410 y y y y y y y y 
   57   92   17  1.140e-02  1.706e-01 10.8410 y y y y y y y y 
   58  100   17  1.107e-02  1.652e-01 10.8410 y y y y y y y y 
   59   22   17  1.104e-02  1.648e-01 10.8410 y y y y y y y y Subspace collapsed.
--------------------------------------------------------------------------------
  Davidson Summary: 
 ------------------------------------------------------------
  State  0: excitation energy =  10.8410 a.u.   (converged)
  State  1: excitation energy =  10.9125 a.u.   (converged)
  State  2: excitation energy =  11.1631 a.u.   (converged)
  State  3: excitation energy =  11.2181 a.u.   (converged)
  State  4: excitation energy =  11.2383 a.u.   (converged)
  State  5: excitation energy =  11.3001 a.u.   (converged)
  State  6: excitation energy =  11.3198 a.u.   (converged)
  State  7: excitation energy =  11.3783 a.u.   (converged)
  State  8: excitation energy =  11.4897 a.u.   (converged)
  State  9: excitation energy =  11.5448 a.u.   (converged)
  State 10: excitation energy =  11.5594 a.u.   (converged)
  State 11: excitation energy =  11.5741 a.u.   (converged)
  State 12: excitation energy =  11.5745 a.u.   (converged)
  State 13: excitation energy =  11.5925 a.u.   (converged)
  State 14: excitation energy =  11.6611 a.u.   (converged)
  State 15: excitation energy =  11.6953 a.u.   (converged)
  State 16: excitation energy =  12.1552 a.u.   (not converged)
  State 17: excitation energy =  12.1654 a.u.   (not converged)
  State 18: excitation energy =  12.1677 a.u.   (not converged)
  State 19: excitation energy =  12.1753 a.u.   (converged)
 ------------------------------------------------------------


--------------------------------------------------------------------------------
                             Excited State Summary
--------------------------------------------------------------------------------

  Excited state  1 (A)                                             [converged]
  ----------------------------------------------------------------------------
  Term symbol:  2 (-) A                                     R^2 =  2.87905e-12

  Total energy:                                           -425.3414780100 a.u.
  Excitation energy:                                             294.997357 eV

  Osc. strength:                                                      0.000000
  Trans. dip. moment [a.u.]:           [   0.000000,    0.000000,   -0.000000]
  <i|r^2|0> [a.u.]:                    [  -0.000000,    0.000000,   -0.000000]

  V1^2 = 0.9596, V2^2 = 0.0404

  Important amplitudes:
     core i     occ j      vir a      vir b          v   
    ------------------------------------------------------
     5 (A) A              22 (A) A                 0.6504
     5 (A) B              22 (A) B                -0.6504
    ------------------------------------------------------
  ----------------------------------------------------------------------------


  Excited state  2 (A)                                             [converged]
  ----------------------------------------------------------------------------
  Term symbol:  3 (-) A                                     R^2 =  1.64440e-12

  Total energy:                                           -425.2698882665 a.u.
  Excitation energy:                                             296.945413 eV

  Osc. strength:                                                      0.112249
  Trans. dip. moment [a.u.]:           [  -0.028552,   -0.117009,    0.030382]
  <i|r^2|0> [a.u.]:                    [   0.047180,   -1.243697,   -0.025288]

  V1^2 = 0.9551, V2^2 = 0.0449

  Important amplitudes:
     core i     occ j      vir a      vir b          v   
    ------------------------------------------------------
     5 (A) B              22 (A) B                -0.6629
     5 (A) A              22 (A) A                -0.6629
    ------------------------------------------------------
  ----------------------------------------------------------------------------


  Excited state  3 (A)                                             [converged]
  ----------------------------------------------------------------------------
  Term symbol:  4 (-) A                                     R^2 =  5.23100e-13

  Total energy:                                           -425.0192917938 a.u.
  Excitation energy:                                             303.764490 eV

  Osc. strength:                                                      0.000000
  Trans. dip. moment [a.u.]:           [   0.000000,    0.000000,   -0.000000]
  <i|r^2|0> [a.u.]:                    [  -0.000000,    0.000000,   -0.000000]

  V1^2 = 0.9302, V2^2 = 0.0698

  Important amplitudes:
     core i     occ j      vir a      vir b          v   
    ------------------------------------------------------
     5 (A) A              23 (A) A                -0.6018
     5 (A) B              23 (A) B                 0.6018
    ------------------------------------------------------
  ----------------------------------------------------------------------------


  Excited state  4 (A)                                             [converged]
  ----------------------------------------------------------------------------
  Term symbol:  5 (-) A                                     R^2 =  4.26578e-13

  Total energy:                                           -424.9642819006 a.u.
  Excitation energy:                                             305.261386 eV

  Osc. strength:                                                      0.003998
  Trans. dip. moment [a.u.]:           [   0.018264,    0.012415,   -0.006850]
  <i|r^2|0> [a.u.]:                    [  -0.043658,    0.104473,   -0.008132]

  V1^2 = 0.9189, V2^2 = 0.0811

  Important amplitudes:
     core i     occ j      vir a      vir b          v   
    ------------------------------------------------------
     5 (A) B              23 (A) B                -0.6444
     5 (A) A              23 (A) A                -0.6444
    ------------------------------------------------------
  ----------------------------------------------------------------------------


  Excited state  5 (A)                                             [converged]
  ----------------------------------------------------------------------------
  Term symbol:  6 (-) A                                     R^2 =  4.15821e-13

  Total energy:                                           -424.9441519138 a.u.
  Excitation energy:                                             305.809150 eV

  Osc. strength:                                                      0.000000
  Trans. dip. moment [a.u.]:           [  -0.000000,   -0.000000,   -0.000000]
  <i|r^2|0> [a.u.]:                    [   0.000000,   -0.000000,    0.000000]

  V1^2 = 0.9547, V2^2 = 0.0453

  Important amplitudes:
     core i     occ j      vir a      vir b          v   
    ------------------------------------------------------
     5 (A) A              27 (A) A                -0.5201
     5 (A) B              27 (A) B                 0.5201
    ------------------------------------------------------
  ----------------------------------------------------------------------------


  Excited state  6 (A)                                             [converged]
  ----------------------------------------------------------------------------
  Term symbol:  7 (-) A                                     R^2 =  1.11030e-12

  Total energy:                                           -424.8823349820 a.u.
  Excitation energy:                                             307.491275 eV

  Osc. strength:                                                      0.000000
  Trans. dip. moment [a.u.]:           [  -0.000000,   -0.000000,   -0.000000]
  <i|r^2|0> [a.u.]:                    [   0.000000,   -0.000000,    0.000000]

  V1^2 = 0.9521, V2^2 = 0.0479

  Important amplitudes:
     core i     occ j      vir a      vir b          v   
    ------------------------------------------------------
     5 (A) A              28 (A) A                -0.5020
     5 (A) B              28 (A) B                 0.5020
    ------------------------------------------------------
  ----------------------------------------------------------------------------


  Excited state  7 (A)                                             [converged]
  ----------------------------------------------------------------------------
  Term symbol:  8 (-) A                                     R^2 =  3.24080e-13

  Total energy:                                           -424.8626669012 a.u.
  Excitation energy:                                             308.026470 eV

  Osc. strength:                                                      0.121802
  Trans. dip. moment [a.u.]:           [  -0.018718,    0.036350,    0.120285]
  <i|r^2|0> [a.u.]:                    [   0.031882,    0.385035,   -0.099508]

  V1^2 = 0.9458, V2^2 = 0.0542

  Important amplitudes:
     core i     occ j      vir a      vir b          v   
    ------------------------------------------------------
     5 (A) B              24 (A) B                 0.4844
     5 (A) A              24 (A) A                 0.4844
    ------------------------------------------------------
  ----------------------------------------------------------------------------


  Excited state  8 (A)                                             [converged]
  ----------------------------------------------------------------------------
  Term symbol:  9 (-) A                                     R^2 =  3.40176e-13

  Total energy:                                           -424.8041458747 a.u.
  Excitation energy:                                             309.618908 eV

  Osc. strength:                                                      0.111502
  Trans. dip. moment [a.u.]:           [  -0.115488,    0.024689,   -0.027426]
  <i|r^2|0> [a.u.]:                    [   0.200260,    0.263084,    0.017074]

  V1^2 = 0.9416, V2^2 = 0.0584

  Important amplitudes:
     core i     occ j      vir a      vir b          v   
    ------------------------------------------------------
     5 (A) B              25 (A) B                -0.4697
     5 (A) A              25 (A) A                -0.4697
    ------------------------------------------------------
  ----------------------------------------------------------------------------


  Excited state  9 (A)                                             [converged]
  ----------------------------------------------------------------------------
  Term symbol:  10 (-) A                                    R^2 =  1.40179e-12

  Total energy:                                           -424.6927340015 a.u.
  Excitation energy:                                             312.650580 eV

  Osc. strength:                                                      0.000000
  Trans. dip. moment [a.u.]:           [  -0.000000,    0.000000,    0.000000]
  <i|r^2|0> [a.u.]:                    [   0.000000,    0.000000,    0.000000]

  V1^2 = 0.9181, V2^2 = 0.0819

  Important amplitudes:
     core i     occ j      vir a      vir b          v   
    ------------------------------------------------------
     5 (A) A              26 (A) A                -0.5440
     5 (A) B              26 (A) B                 0.5440
    ------------------------------------------------------
  ----------------------------------------------------------------------------


  Excited state 10 (A)                                             [converged]
  ----------------------------------------------------------------------------
  Term symbol:  11 (-) A                                    R^2 =  2.77237e-12

  Total energy:                                           -424.6376542616 a.u.
  Excitation energy:                                             314.149376 eV

  Osc. strength:                                                      0.023268
  Trans. dip. moment [a.u.]:           [  -0.015177,   -0.051772,    0.010605]
  <i|r^2|0> [a.u.]:                    [   0.008330,   -0.570920,   -0.027501]

  V1^2 = 0.9158, V2^2 = 0.0842

  Important amplitudes:
     core i     occ j      vir a      vir b          v   
    ------------------------------------------------------
     5 (A) B              26 (A) B                 0.6187
     5 (A) A              26 (A) A                 0.6187
    ------------------------------------------------------
  ----------------------------------------------------------------------------


  Excited state 11 (A)                                             [converged]
  ----------------------------------------------------------------------------
  Term symbol:  12 (-) A                                    R^2 =  1.37693e-12

  Total energy:                                           -424.6229941078 a.u.
  Excitation energy:                                             314.548299 eV

  Osc. strength:                                                      0.000000
  Trans. dip. moment [a.u.]:           [  -0.000000,    0.000000,    0.000000]
  <i|r^2|0> [a.u.]:                    [   0.000000,    0.000000,   -0.000000]

  V1^2 = 0.8962, V2^2 = 0.1038

  Important amplitudes:
     core i     occ j      vir a      vir b          v   
    ------------------------------------------------------
     5 (A) A              24 (A) A                -0.4839
     5 (A) B              24 (A) B                 0.4839
    ------------------------------------------------------
  ----------------------------------------------------------------------------


  Excited state 12 (A)                                             [converged]
  ----------------------------------------------------------------------------
  Term symbol:  13 (-) A                                    R^2 =  7.17284e-13

  Total energy:                                           -424.6083344549 a.u.
  Excitation energy:                                             314.947208 eV

  Osc. strength:                                                      0.000000
  Trans. dip. moment [a.u.]:           [   0.000000,   -0.000000,   -0.000000]
  <i|r^2|0> [a.u.]:                    [  -0.000000,   -0.000000,    0.000000]

  V1^2 = 0.8955, V2^2 = 0.1045

  Important amplitudes:
     core i     occ j      vir a      vir b          v   
    ------------------------------------------------------
     5 (A) A              25 (A) A                 0.5100
     5 (A) B              25 (A) B                -0.5100
    ------------------------------------------------------
  ----------------------------------------------------------------------------


  Excited state 13 (A)                                             [converged]
  ----------------------------------------------------------------------------
  Term symbol:  14 (-) A                                    R^2 =  3.84215e-13

  Total energy:                                           -424.6079199190 a.u.
  Excitation energy:                                             314.958488 eV

  Osc. strength:                                                      0.025637
  Trans. dip. moment [a.u.]:           [  -0.014353,    0.021456,    0.051537]
  <i|r^2|0> [a.u.]:                    [   0.019207,    0.221047,   -0.048681]

  V1^2 = 0.8995, V2^2 = 0.1005

  Important amplitudes:
     core i     occ j      vir a      vir b          v   
    ------------------------------------------------------
     5 (A) B              27 (A) B                 0.4753
     5 (A) A              27 (A) A                 0.4753
    ------------------------------------------------------
  ----------------------------------------------------------------------------


  Excited state 14 (A)                                             [converged]
  ----------------------------------------------------------------------------
  Term symbol:  15 (-) A                                    R^2 =  1.36801e-12

  Total energy:                                           -424.5899766719 a.u.
  Excitation energy:                                             315.446749 eV

  Osc. strength:                                                      0.035624
  Trans. dip. moment [a.u.]:           [  -0.063506,    0.013931,   -0.019556]
  <i|r^2|0> [a.u.]:                    [   0.102762,    0.140959,    0.007742]

  V1^2 = 0.9024, V2^2 = 0.0976

  Important amplitudes:
     core i     occ j      vir a      vir b          v   
    ------------------------------------------------------
     5 (A) B              25 (A) B                 0.4614
     5 (A) A              25 (A) A                 0.4614
    ------------------------------------------------------
  ----------------------------------------------------------------------------


  Excited state 15 (A)                                             [converged]
  ----------------------------------------------------------------------------
  Term symbol:  16 (-) A                                    R^2 =  1.94334e-12

  Total energy:                                           -424.5212990886 a.u.
  Excitation energy:                                             317.315561 eV

  Osc. strength:                                                      0.000000
  Trans. dip. moment [a.u.]:           [   0.000000,   -0.000000,   -0.000000]
  <i|r^2|0> [a.u.]:                    [  -0.000000,   -0.000000,   -0.000000]

  V1^2 = 0.9015, V2^2 = 0.0985

  Important amplitudes:
     core i     occ j      vir a      vir b          v   
    ------------------------------------------------------
     5 (A) A              29 (A) A                 0.5134
     5 (A) B              29 (A) B                -0.5134
    ------------------------------------------------------
  ----------------------------------------------------------------------------


  Excited state 16 (A)                                             [converged]
  ----------------------------------------------------------------------------
  Term symbol:  17 (-) A                                    R^2 =  6.62447e-10

  Total energy:                                           -424.4871543373 a.u.
  Excitation energy:                                             318.244687 eV

  Osc. strength:                                                      0.016762
  Trans. dip. moment [a.u.]:           [   0.017736,    0.039290,   -0.017077]
  <i|r^2|0> [a.u.]:                    [  -0.045202,    0.400186,   -0.002670]

  V1^2 = 0.9040, V2^2 = 0.0960

  Important amplitudes:
     core i     occ j      vir a      vir b          v   
    ------------------------------------------------------
     5 (A) B              29 (A) B                -0.5747
     5 (A) A              29 (A) A                -0.5747
    ------------------------------------------------------
  ----------------------------------------------------------------------------


  Excited state 17 (A)                                         [not converged]
  ----------------------------------------------------------------------------
  Term symbol:  18 (-) A                                    R^2 =  1.06247e-01

  Total energy:                                           -424.0272389546 a.u.
  Excitation energy:                                             330.759621 eV


  V1^2 = 0.0025, V2^2 = 0.9975

  Important amplitudes:
     core i     occ j      vir a      vir b          v   
    ------------------------------------------------------
     5 (A) B   21 (A) A   22 (A) A   22 (A) B      0.5829
     5 (A) A   21 (A) B   22 (A) A   22 (A) B      0.3806
    ------------------------------------------------------
  ----------------------------------------------------------------------------


  Excited state 18 (A)                                         [not converged]
  ----------------------------------------------------------------------------
  Term symbol:  19 (-) A                                    R^2 =  1.01488e-01

  Total energy:                                           -424.0169863988 a.u.
  Excitation energy:                                             331.038607 eV


  V1^2 = 0.0010, V2^2 = 0.9990

  Important amplitudes:
     core i     occ j      vir a      vir b          v   
    ------------------------------------------------------
     5 (A) B   20 (A) A   22 (A) A   22 (A) B      0.5694
     5 (A) A   19 (A) B   22 (A) A   22 (A) B     -0.3834
    ------------------------------------------------------
  ----------------------------------------------------------------------------


  Excited state 19 (A)                                         [not converged]
  ----------------------------------------------------------------------------
  Term symbol:  20 (-) A                                    R^2 =  1.64777e-01

  Total energy:                                           -424.0147426066 a.u.
  Excitation energy:                                             331.099664 eV


  V1^2 = 0.0033, V2^2 = 0.9967

  Important amplitudes:
     core i     occ j      vir a      vir b          v   
    ------------------------------------------------------
     5 (A) A   20 (A) B   22 (A) A   22 (A) B      0.5088
     5 (A) A   21 (A) B   22 (A) A   22 (A) B     -0.3903
    ------------------------------------------------------
  ----------------------------------------------------------------------------


  Excited state 20 (A)                                             [converged]
  ----------------------------------------------------------------------------
  Term symbol:  21 (-) A                                    R^2 =  2.49228e-09

  Total energy:                                           -424.0071202334 a.u.
  Excitation energy:                                             331.307079 eV

  Osc. strength:                                                      0.000000
  Trans. dip. moment [a.u.]:           [   0.000000,   -0.000000,   -0.000000]
  <i|r^2|0> [a.u.]:                    [  -0.000000,   -0.000000,   -0.000000]

  V1^2 = 0.8758, V2^2 = 0.1242

  Important amplitudes:
     core i     occ j      vir a      vir b          v   
    ------------------------------------------------------
     5 (A) B              30 (A) B                -0.6060
     5 (A) A              30 (A) A                 0.6060
    ------------------------------------------------------
  ----------------------------------------------------------------------------


--------------------------------------------------------------------------------
  Time of ADC calculation:  CPU 3298.96 s  wall 2022.31 s
================================================================================
 
 --------------------------------------------------------------
 
                    Orbital Energies (a.u.)
 --------------------------------------------------------------
 
 Alpha MOs
 -- Occupied --
-26.571 -26.541 -26.517 -25.977 -11.741  -2.003  -1.896  -1.850
 -1.229  -1.138  -1.064  -1.053  -1.007  -0.884  -0.879  -0.866
 -0.832  -0.818  -0.339  -0.339  -0.327
 -- Virtual --
  0.041   0.228   0.415   0.434   0.564   0.611   0.673   0.703
  1.158   1.192   1.215   1.300   1.334   1.408   1.443   1.456
  1.489   1.494   1.506   1.556   1.594   1.730   1.764   1.806
  1.851   1.921   1.947   1.956   1.996   2.111   2.123   2.173
  2.189   2.210   2.291   2.364   2.406   2.407   2.424   2.442
  2.455   2.706   2.915   2.962   3.235   3.301   3.476   3.495
  3.527   4.143   4.503   5.095   5.181   5.359
 
 Beta MOs
 -- Occupied --
-26.571 -26.541 -26.517 -25.977 -11.741  -2.003  -1.896  -1.850
 -1.229  -1.138  -1.064  -1.053  -1.007  -0.884  -0.879  -0.866
 -0.832  -0.818  -0.339  -0.339  -0.327
 -- Virtual --
  0.041   0.228   0.415   0.434   0.564   0.611   0.673   0.703
  1.158   1.192   1.215   1.300   1.334   1.408   1.443   1.456
  1.489   1.494   1.506   1.556   1.594   1.730   1.764   1.806
  1.851   1.921   1.947   1.956   1.996   2.111   2.123   2.173
  2.189   2.210   2.291   2.364   2.406   2.407   2.424   2.442
  2.455   2.706   2.915   2.962   3.235   3.301   3.476   3.495
  3.527   4.143   4.503   5.095   5.181   5.359
 --------------------------------------------------------------
 
          Ground-State Mulliken Net Atomic Charges

     Atom                 Charge (a.u.)    Spin (a.u.)
  --------------------------------------------------------
      1 C                     1.086013       0.000000
      2 F                    -0.037520       0.000000
      3 F                    -0.107580       0.000000
      4 F                    -0.840681       0.000000
      5 F                    -0.100232       0.000000
  --------------------------------------------------------
  Sum of atomic charges =     0.000000
  Sum of spin   charges =     0.000000

 -----------------------------------------------------------------
                    Cartesian Multipole Moments
 -----------------------------------------------------------------
    Charge (ESU x 10^10)
                 0.0000
    Dipole Moment (Debye)
         X       4.6986      Y       8.7183      Z      -4.0592
       Tot      10.7034
    Quadrupole Moments (Debye-Ang)
        XX     -31.3435     XY      -0.0460     YY       7.8592
        XZ       5.1130     YZ      -4.8124     ZZ     -24.8933
    Octopole Moments (Debye-Ang^2)
       XXX      64.1122    XXY     -56.1275    XYY       7.7810
       YYY     -63.9061    XXZ      -7.9507    XYZ       4.0764
       YYZ     -10.2247    XZZ      19.6521    YZZ     -52.8557
       ZZZ      -3.8435
    Hexadecapole Moments (Debye-Ang^3)
      XXXX    -187.7755   XXXY      99.3578   XXYY    -168.5489
      XYYY      60.3257   YYYY    -580.5070   XXXZ      24.5772
      XXYZ       0.7029   XYYZ       8.6665   YYYZ      -9.8933
      XXZZ     -47.3409   XYZZ      30.9303   YYZZ    -156.1339
      XZZZ      16.7047   YZZZ      15.7286   ZZZZ     -91.4336
 -----------------------------------------------------------------
Archival summary:
1\1\tp-linux1\SP\HF\6-31G*\41\thomas\SunMar1918:41:262017SunMar1918:41:262017\0\\#,HF,6-31G*,\\0,1\C\F,1,1.15483\F,1,1.20307,2,121.698\F,1,1.22247,2,120.787,3,179.119,0\F,4,2.63482,1,77.1644,2,95.2808,0\\HF=-435.3858\\@

 Total job time:  2026.35s(wall), 3309.16s(cpu) 
 Sun Mar 19 18:41:26 2017

        *************************************************************
        *                                                           *
        *  Thank you very much for using Q-Chem.  Have a nice day.  *
        *                                                           *
        *************************************************************


0 sent ACK to 0 
now end server 0 ... 
cleanup process ... done
