
Running Job 1 of 2 ddtraj1t28.inp
qchem ddtraj1t28.inp_28773.0 /scratch/qchem/qchem28773/ 1
/mnt/software/qchem/bin/mpi/mpirun_qchem -machinefile /mnt/software/qchem/bin/mpi/machines -np 1 /mnt/software/qchem/exe/qcprog.exe ddtraj1t28.inp_28773.0 /scratch/qchem/qchem28773/

Process 0 of 1 is on tp-linux1 - thread support 0
initial socket setup ...start
initial socket setup ...done 
now start server 0 ... 

cmd = ssh tp-linux1 /mnt/software/qchem/bin/get_hostid 704785675 > /scratch/qchem/qchem28773/lic.dat
                  Welcome to Q-Chem
     A Quantum Leap Into The Future Of Chemistry


 Q-Chem 4.3, Q-Chem, Inc., Pleasanton, CA (2015)

 Y. Shao,  Z. Gan,  E. Epifanovsky,  A. T. B. Gilbert,  M. Wormit,  
 J. Kussmann,  A. W. Lange,  A. Behn,  J. Deng,  X. Feng,  D. Ghosh,  
 M. Goldey,  P. R. Horn,  L. D. Jacobson,  I. Kaliman,  R. Z. Khaliullin,  
 T. Kus,  A. Landau,  J. Liu,  E. I. Proynov,  Y. M. Rhee,  R. M. Richard,  
 M. A. Rohrdanz,  R. P. Steele,  E. J. Sundstrom,  H. L. Woodcock III,  
 P. M. Zimmerman,  D. Zuev,  B. Albrecht,  E. Alguire,  B. Austin,  
 S. A. Baeppler,  G. J. O. Beran,  Y. A. Bernard,  E. Berquist,  
 K. Brandhorst,  K. B. Bravaya,  S. T. Brown,  D. Casanova,  C.-M. Chang,  
 Y. Chen,  S. H. Chien,  K. D. Closser,  D. L. Crittenden,  M. Diedenhofen,  
 R. A. DiStasio Jr.,  H. Do,  A. D. Dutoi,  R. G. Edgar,  P.-T. Fang,  
 S. Fatehi,  Q. Feng,  L. Fusti-Molnar,  A. Ghysels,  
 A. Golubeva-Zadorozhnaya,  J. Gomes,  A. Gunina,  M. W. D. Hanson-Heine,  
 P. H. P. Harbach,  A. W. Hauser,  E. G. Hohenstein,  Z. C. Holden,  K. Hui,  
 T.-C. Jagau,  H. Ji,  B. Kaduk,  K. Khistyaev,  Jaehoon Kim,  Jihan Kim,  
 R. A. King,  P. Klunzinger,  D. Kosenkov,  T. Kowalczyk,  C. M. Krauter,  
 K. U. Lao,  A. Laurent,  K. V. Lawler,  S. Lehtola,  S. V. Levchenko,  
 C. Y. Lin,  Y.-S. Lin,  F. Liu,  E. Livshits,  R. C. Lochan,  A. Luenser,  
 P. Manohar,  S. F. Manzer,  S.-P. Mao,  N. Mardirossian,  A. V. Marenich,  
 L. A. Martinez-Martinez,  S. A. Maurer,  N. J. Mayhall,  K. Nanda,  
 C. M. Oana,  R. Olivares-Amaya,  D. P. O'Neill,  J. A. Parkhill,  
 T. M. Perrine,  R. Peverati,  P. A. Pieniazek,  F. Plasser,  A. Prociuk,  
 D. R. Rehn,  E. Rosta,  N. J. Russ,  N. Sergueev,  S. M. Sharada,  
 S. Sharma,  D. W. Small,  A. Sodt,  T. Stauch,  T. Stein,  D. Stuck,  
 Y.-C. Su,  A. J. W. Thom,  T. Tsuchimochi,  L. Vogt,  O. Vydrov,  T. Wang,  
 M. A. Watson,  J. Wenzel,  A. White,  C. F. Williams,  V. Vanovschi,  
 S. Yeganeh,  S. R. Yost,  Z.-Q. You,  I. Y. Zhang,  X. Zhang,  Y. Zhao,  
 B. R. Brooks,  G. K. L. Chan,  D. M. Chipman,  C. J. Cramer,  
 W. A. Goddard III,  M. S. Gordon,  W. J. Hehre,  A. Klamt,  
 H. F. Schaefer III,  M. W. Schmidt,  C. D. Sherrill,  D. G. Truhlar,  
 A. Warshel,  X. Xu,  A. Aspuru-Guzik,  R. Baer,  A. T. Bell,  N. A. Besley,  
 J.-D. Chai,  A. Dreuw,  B. D. Dunietz,  T. R. Furlani,  S. R. Gwaltney,  
 C.-P. Hsu,  Y. Jung,  J. Kong,  D. S. Lambrecht,  W. Liang,  C. Ochsenfeld,  
 V. A. Rassolov,  L. V. Slipchenko,  J. E. Subotnik,  T. Van Voorhis,  
 J. M. Herbert,  A. I. Krylov,  P. M. W. Gill,  M. Head-Gordon

 Contributors to earlier versions of Q-Chem not listed above: 
 R. D. Adamson,  J. Baker,  E. F. C. Byrd,  A. K. Chakraborty,  C.-L. Cheng,  
 H. Dachsel,  R. J. Doerksen,  G. Hawkins,  A. Heyden,  S. Hirata,  
 G. Kedziora,  F. J. Keil,  C. Kelley,  P. P. Korambath,  W. Kurlancheek,  
 A. M. Lee,  M. S. Lee,  D. Liotard,  I. Lotan,  P. E. Maslen,  N. Nair,  
 D. Neuhauser,  R. Olson,  B. Peters,  J. Ritchie,  N. E. Schultz,  
 N. Shenvi,  A. C. Simmonett,  K. S. Thanthiriwatte,  Q. Wu,  W. Zhang

 Please cite Q-Chem as follows:
 Y. Shao et al., Mol. Phys. 113, 184-215 (2015)
 DOI: 10.1080/00268976.2014.952696

 Q-Chem 4.3.0 for Intel X86 Linux

 Parts of Q-Chem use Armadillo 5.200.1 (Boston Tea Smuggler).
 http://arma.sourceforge.net/

 Q-Chem begins on Thu Mar 16 00:31:12 2017  

Host: 
0

     Scratch files written to /scratch/qchem/qchem28773//
 Nov1815 1189b_ 19540  19532 5443   
 Parallel job on  1  processors
Processing $rem in /mnt/software/qchem/config/preferences.
 MEM_TOTAL  2000 

Checking the input file for inconsistencies... 	...done.

--------------------------------------------------------------
User input:
--------------------------------------------------------------
$comment
XAS calculation for the 2b valence excited for water using cvs-adc(2)-x + 6-311+G* basis set
job 1 - determination of HF orbitals
$end

$molecule
0 1
6  -0.499533  2.88231  -0.229875
9  0.611571  2.458311  -0.052819
9  -1.088885  3.35901  0.726133
9  -1.373644  0.572556  0.695829
9  -1.071406  2.671224  -1.227196
$end

$rem
jobtype      sp
sym_ignore true
exchange     hf
basis        6-31G*
unrestricted true
$end

--------------------------------------------------------------
 ----------------------------------------------------------------
             Standard Nuclear Orientation (Angstroms)
    I     Atom           X                Y                Z
 ----------------------------------------------------------------
    1      C      -0.4995330000     2.8823100000    -0.2298750000
    2      F       0.6115710000     2.4583110000    -0.0528190000
    3      F      -1.0888850000     3.3590100000     0.7261330000
    4      F      -1.3736440000     0.5725560000     0.6958290000
    5      F      -1.0714060000     2.6712240000    -1.2271960000
 ----------------------------------------------------------------
 Nuclear Repulsion Energy =   189.9661736622 hartrees
 There are       21 alpha and       21 beta electrons
 Requested basis set is 6-31G(d)
 There are 20 shells and 75 basis functions

 Total QAlloc Memory Limit   2000 MB
 Mega-Array Size        61 MB
 MEM_STATIC part        62 MB

                       Distance Matrix (Angstroms)
             C (  1)   F (  2)   F (  3)   F (  4)
   F (  2)  1.202363
   F (  3)  1.220053  2.075952
   F (  4)  2.637416  2.838595  2.801130
   F (  5)  1.168865  2.063227  2.070954  2.862478
 
 tim1(1): 
  0.000000000000000E+000
 tim1(2): 
  0.000000000000000E+000
 A cutoff of  1.0D-08 yielded    188 shell pairs
 There are      2882 function pairs
 
 -------------------------------------------------------
 OpenMP Integral Computing Module                       
 Release: version 1.0, May 2013, Q-Chem Inc. Pittsburgh 
 -------------------------------------------------------
 Integral Job Info:
 Integral job number is                      11
 Integral operator is                         1
 short-range coefficients                     0
 long-range coefficients              100000000
 Omega coefficients                           0
 if combine SR and LR in K                    0
 Integral screening is                        0
 Integral computing path is                   2
 max size of driver memory is            800000
 size of driver memory is                593474
 size of scratch memory is              2260544
 max col of scratch BK array               1296
 max len of scratch array in speh3          155
 max len of scratch index in speh4           18
 max int batch size is                      520
 min int batch size is                       52
 fixed nKL is                                52
 max L of basis functions is                  2
 order of int derivative is                   0
 number of shells is                         20
 number of basis is                          75
 number of cartesian basis is                75
 number of contracted shell pairs           188
 number of primitive shell pairs            917
 maxK2 (contraction) of shell pair           36
 max number of K2 of shell pair               1
 max number of CS2 of shell pair             27
 max number of PS2 of shell pair            180
 mem total for path MDJ                   18100
 -------------------------------------------------------
 Smallest overlap matrix eigenvalue = 2.81E-03

 Scale SEOQF with 1.000000e+00/1.000000e-01/1.000000e+00

 Standard Electronic Orientation quadrupole field applied
 Nucleus-field energy     =     0.0000000102 hartrees
 Guess from superposition of atomic densities
 Warning:  Energy on first SCF cycle will be non-variational
 An unrestricted Hartree-Fock SCF calculation will be
 performed using Pulay DIIS extrapolation
 SCF converges when DIIS error is below 1.0E-05
 using 8 threads for integral computing 
 ---------------------------------------
  Cycle       Energy         DIIS Error
 ---------------------------------------
    1    -436.6025343636      9.72E-02
    2    -435.1454144320      2.10E-02
    3    -435.3058066094      1.27E-02
    4    -435.3821613526      1.56E-03
    5    -435.3839138331      4.39E-04
    6    -435.3842372387      1.48E-04
    7    -435.3842872194      5.37E-05
    8    -435.3843027820      2.49E-05
    9    -435.3843052073      6.40E-06 Convergence criterion met
 ---------------------------------------
 <S^2> = 0.0000
 SCF time:  CPU 9.11 s  wall 3.39 s
 SCF   energy in the final basis set = -435.3843052073
 Total energy in the final basis set = -435.3843052073
 
 --------------------------------------------------------------
 
                    Orbital Energies (a.u.)
 --------------------------------------------------------------
 
 Alpha MOs
 -- Occupied --
-26.560 -26.541 -26.531 -25.967 -11.743  -1.993  -1.890  -1.860
 -1.222  -1.133  -1.059  -1.054  -1.000  -0.881  -0.880  -0.858
 -0.841  -0.823  -0.332  -0.332  -0.324
 -- Virtual --
  0.015   0.257   0.408   0.419   0.563   0.611   0.654   0.707
  1.169   1.193   1.204   1.329   1.330   1.396   1.452   1.456
  1.486   1.490   1.500   1.544   1.615   1.744   1.751   1.841
  1.861   1.876   1.951   1.955   1.985   2.102   2.114   2.176
  2.185   2.225   2.287   2.324   2.412   2.412   2.435   2.439
  2.501   2.817   2.900   2.941   3.226   3.279   3.463   3.479
  3.522   4.149   4.525   5.072   5.211   5.535
 
 Beta MOs
 -- Occupied --
-26.560 -26.541 -26.531 -25.967 -11.743  -1.993  -1.890  -1.860
 -1.222  -1.133  -1.059  -1.054  -1.000  -0.881  -0.880  -0.858
 -0.841  -0.823  -0.332  -0.332  -0.324
 -- Virtual --
  0.015   0.257   0.408   0.419   0.563   0.611   0.654   0.707
  1.169   1.193   1.204   1.329   1.330   1.396   1.452   1.456
  1.486   1.490   1.500   1.544   1.615   1.744   1.751   1.841
  1.861   1.876   1.951   1.955   1.985   2.102   2.114   2.176
  2.185   2.225   2.287   2.324   2.412   2.412   2.435   2.439
  2.501   2.817   2.900   2.941   3.226   3.279   3.463   3.479
  3.522   4.149   4.525   5.072   5.211   5.535
 --------------------------------------------------------------
 
          Ground-State Mulliken Net Atomic Charges

     Atom                 Charge (a.u.)    Spin (a.u.)
  --------------------------------------------------------
      1 C                     1.103119       0.000000
      2 F                    -0.090293       0.000000
      3 F                    -0.111115       0.000000
      4 F                    -0.856634       0.000000
      5 F                    -0.045077       0.000000
  --------------------------------------------------------
  Sum of atomic charges =     0.000000
  Sum of spin   charges =     0.000000

 -----------------------------------------------------------------
                    Cartesian Multipole Moments
 -----------------------------------------------------------------
    Charge (ESU x 10^10)
                 0.0000
    Dipole Moment (Debye)
         X       3.5660      Y       9.4812      Z      -4.0153
       Tot      10.8964
    Quadrupole Moments (Debye-Ang)
        XX     -29.1991     XY      -2.4220     YY      10.8921
        XZ       4.4961     YZ      -5.3006     ZZ     -24.0859
    Octopole Moments (Debye-Ang^2)
       XXX      59.1860    XXY     -53.5986    XYY       1.9533
       YYY     -52.7071    XXZ      -6.1538    XYZ       4.0189
       YYZ     -12.5506    XZZ      18.2059    YZZ     -51.5184
       ZZZ      -3.4480
    Hexadecapole Moments (Debye-Ang^3)
      XXXX    -165.8497   XXXY     101.0566   XXYY    -164.8347
      XYYY      51.2909   YYYY    -554.6462   XXXZ      15.8789
      XXYZ       0.6560   XYYZ       8.2313   YYYZ     -21.6713
      XXZZ     -41.4629   XYZZ      31.5217   YYZZ    -154.0663
      XZZZ      10.6210   YZZZ      12.2704   ZZZZ     -82.4790
 -----------------------------------------------------------------
Archival summary:
1\1\tp-linux1\SP\HF\6-31G*\41\thomas\ThuMar1600:31:252017ThuMar1600:31:252017\0\\#,HF,6-31G*,\\0,1\C\F,1,1.16886\F,1,1.20236,2,120.936\F,1,1.22005,2,120.186,3,168.783,0\F,1,2.63742,2,88.8065,3,85.6564,0\\HF=-435.384305\\@

 Total job time:  13.25s(wall), 10.71s(cpu) 
 Thu Mar 16 00:31:25 2017

        *************************************************************
        *                                                           *
        *  Thank you very much for using Q-Chem.  Have a nice day.  *
        *                                                           *
        *************************************************************


0 sent ACK to 0 
now end server 0 ... 
cleanup process ... done

Running Job 2 of 2 ddtraj1t28.inp
qchem ddtraj1t28.inp_28773.1 /scratch/qchem/qchem28773/ 1
/mnt/software/qchem/bin/mpi/mpirun_qchem -machinefile /mnt/software/qchem/bin/mpi/machines -np 1 /mnt/software/qchem/exe/qcprog.exe ddtraj1t28.inp_28773.1 /scratch/qchem/qchem28773/

Process 0 of 1 is on tp-linux1 - thread support 0
initial socket setup ...start
initial socket setup ...done 
now start server 0 ... 

cmd = ssh tp-linux1 /mnt/software/qchem/bin/get_hostid 1401759547 > /scratch/qchem/qchem28773/lic.dat
                  Welcome to Q-Chem
     A Quantum Leap Into The Future Of Chemistry


 Q-Chem 4.3, Q-Chem, Inc., Pleasanton, CA (2015)

 Y. Shao,  Z. Gan,  E. Epifanovsky,  A. T. B. Gilbert,  M. Wormit,  
 J. Kussmann,  A. W. Lange,  A. Behn,  J. Deng,  X. Feng,  D. Ghosh,  
 M. Goldey,  P. R. Horn,  L. D. Jacobson,  I. Kaliman,  R. Z. Khaliullin,  
 T. Kus,  A. Landau,  J. Liu,  E. I. Proynov,  Y. M. Rhee,  R. M. Richard,  
 M. A. Rohrdanz,  R. P. Steele,  E. J. Sundstrom,  H. L. Woodcock III,  
 P. M. Zimmerman,  D. Zuev,  B. Albrecht,  E. Alguire,  B. Austin,  
 S. A. Baeppler,  G. J. O. Beran,  Y. A. Bernard,  E. Berquist,  
 K. Brandhorst,  K. B. Bravaya,  S. T. Brown,  D. Casanova,  C.-M. Chang,  
 Y. Chen,  S. H. Chien,  K. D. Closser,  D. L. Crittenden,  M. Diedenhofen,  
 R. A. DiStasio Jr.,  H. Do,  A. D. Dutoi,  R. G. Edgar,  P.-T. Fang,  
 S. Fatehi,  Q. Feng,  L. Fusti-Molnar,  A. Ghysels,  
 A. Golubeva-Zadorozhnaya,  J. Gomes,  A. Gunina,  M. W. D. Hanson-Heine,  
 P. H. P. Harbach,  A. W. Hauser,  E. G. Hohenstein,  Z. C. Holden,  K. Hui,  
 T.-C. Jagau,  H. Ji,  B. Kaduk,  K. Khistyaev,  Jaehoon Kim,  Jihan Kim,  
 R. A. King,  P. Klunzinger,  D. Kosenkov,  T. Kowalczyk,  C. M. Krauter,  
 K. U. Lao,  A. Laurent,  K. V. Lawler,  S. Lehtola,  S. V. Levchenko,  
 C. Y. Lin,  Y.-S. Lin,  F. Liu,  E. Livshits,  R. C. Lochan,  A. Luenser,  
 P. Manohar,  S. F. Manzer,  S.-P. Mao,  N. Mardirossian,  A. V. Marenich,  
 L. A. Martinez-Martinez,  S. A. Maurer,  N. J. Mayhall,  K. Nanda,  
 C. M. Oana,  R. Olivares-Amaya,  D. P. O'Neill,  J. A. Parkhill,  
 T. M. Perrine,  R. Peverati,  P. A. Pieniazek,  F. Plasser,  A. Prociuk,  
 D. R. Rehn,  E. Rosta,  N. J. Russ,  N. Sergueev,  S. M. Sharada,  
 S. Sharma,  D. W. Small,  A. Sodt,  T. Stauch,  T. Stein,  D. Stuck,  
 Y.-C. Su,  A. J. W. Thom,  T. Tsuchimochi,  L. Vogt,  O. Vydrov,  T. Wang,  
 M. A. Watson,  J. Wenzel,  A. White,  C. F. Williams,  V. Vanovschi,  
 S. Yeganeh,  S. R. Yost,  Z.-Q. You,  I. Y. Zhang,  X. Zhang,  Y. Zhao,  
 B. R. Brooks,  G. K. L. Chan,  D. M. Chipman,  C. J. Cramer,  
 W. A. Goddard III,  M. S. Gordon,  W. J. Hehre,  A. Klamt,  
 H. F. Schaefer III,  M. W. Schmidt,  C. D. Sherrill,  D. G. Truhlar,  
 A. Warshel,  X. Xu,  A. Aspuru-Guzik,  R. Baer,  A. T. Bell,  N. A. Besley,  
 J.-D. Chai,  A. Dreuw,  B. D. Dunietz,  T. R. Furlani,  S. R. Gwaltney,  
 C.-P. Hsu,  Y. Jung,  J. Kong,  D. S. Lambrecht,  W. Liang,  C. Ochsenfeld,  
 V. A. Rassolov,  L. V. Slipchenko,  J. E. Subotnik,  T. Van Voorhis,  
 J. M. Herbert,  A. I. Krylov,  P. M. W. Gill,  M. Head-Gordon

 Contributors to earlier versions of Q-Chem not listed above: 
 R. D. Adamson,  J. Baker,  E. F. C. Byrd,  A. K. Chakraborty,  C.-L. Cheng,  
 H. Dachsel,  R. J. Doerksen,  G. Hawkins,  A. Heyden,  S. Hirata,  
 G. Kedziora,  F. J. Keil,  C. Kelley,  P. P. Korambath,  W. Kurlancheek,  
 A. M. Lee,  M. S. Lee,  D. Liotard,  I. Lotan,  P. E. Maslen,  N. Nair,  
 D. Neuhauser,  R. Olson,  B. Peters,  J. Ritchie,  N. E. Schultz,  
 N. Shenvi,  A. C. Simmonett,  K. S. Thanthiriwatte,  Q. Wu,  W. Zhang

 Please cite Q-Chem as follows:
 Y. Shao et al., Mol. Phys. 113, 184-215 (2015)
 DOI: 10.1080/00268976.2014.952696

 Q-Chem 4.3.0 for Intel X86 Linux

 Parts of Q-Chem use Armadillo 5.200.1 (Boston Tea Smuggler).
 http://arma.sourceforge.net/

 Q-Chem begins on Thu Mar 16 00:31:28 2017  

Host: 
0

     Scratch files written to /scratch/qchem/qchem28773//
 Nov1815 1189b_ 19540  19532 5443   
 Parallel job on  1  processors
Processing $rem in /mnt/software/qchem/config/preferences.
 MEM_TOTAL  2000 

Checking the input file for inconsistencies... 	...done.

--------------------------------------------------------------
User input:
--------------------------------------------------------------

$comment
job3 - cvs-adc(2) calculation
$end

$molecule
read
$end

$rem
mem_total 3000
mem_static 1500
sym_ignore true
scf_guess read
method cvs-adc(2)
basis 6-31G*
ee_singlets 20
cc_rest_occ 5                  !only excitations from the lowest N orbitals
unrestricted  true
max_scf_cycles 200
$end
--------------------------------------------------------------
 ----------------------------------------------------------------
             Standard Nuclear Orientation (Angstroms)
    I     Atom           X                Y                Z
 ----------------------------------------------------------------
    1      C      -0.4995330000     2.8823100000    -0.2298750000
    2      F       0.6115710000     2.4583110000    -0.0528190000
    3      F      -1.0888850000     3.3590100000     0.7261330000
    4      F      -1.3736440000     0.5725560000     0.6958290000
    5      F      -1.0714060000     2.6712240000    -1.2271960000
 ----------------------------------------------------------------
 Nuclear Repulsion Energy =   189.9661736622 hartrees
 There are       21 alpha and       21 beta electrons
 Requested basis set is 6-31G(d)
 There are 20 shells and 75 basis functions

 Total QAlloc Memory Limit   3000 MB
 Mega-Array Size      1467 MB
 MEM_STATIC part      1500 MB

                       Distance Matrix (Angstroms)
             C (  1)   F (  2)   F (  3)   F (  4)
   F (  2)  1.202363
   F (  3)  1.220053  2.075952
   F (  4)  2.637416  2.838595  2.801130
   F (  5)  1.168865  2.063227  2.070954  2.862478
 
 tim1(1): 
  0.000000000000000E+000
 tim1(2): 
  0.000000000000000E+000
 A cutoff of  1.0D-11 yielded    197 shell pairs
 There are      2954 function pairs
 
 -------------------------------------------------------
 OpenMP Integral Computing Module                       
 Release: version 1.0, May 2013, Q-Chem Inc. Pittsburgh 
 -------------------------------------------------------
 Integral Job Info:
 Integral job number is                      11
 Integral operator is                         1
 short-range coefficients                     0
 long-range coefficients              100000000
 Omega coefficients                           0
 if combine SR and LR in K                    0
 Integral screening is                        0
 Integral computing path is                   2
 max size of driver memory is            800000
 size of driver memory is                593474
 size of scratch memory is              2260544
 max col of scratch BK array               1296
 max len of scratch array in speh3          155
 max len of scratch index in speh4           18
 max int batch size is                      520
 min int batch size is                       52
 fixed nKL is                                52
 max L of basis functions is                  2
 order of int derivative is                   0
 number of shells is                         20
 number of basis is                          75
 number of cartesian basis is                75
 number of contracted shell pairs           197
 number of primitive shell pairs           1008
 maxK2 (contraction) of shell pair           36
 max number of K2 of shell pair               1
 max number of CS2 of shell pair             32
 max number of PS2 of shell pair            192
 mem total for path MDJ                   21832
 -------------------------------------------------------
 Smallest overlap matrix eigenvalue = 2.81E-03

 Scale SEOQF with 1.000000e+00/1.000000e-01/1.000000e+00

 Standard Electronic Orientation quadrupole field applied
 Nucleus-field energy     =     0.0000000102 hartrees
 Guess MOs from SCF MO coefficient file
 Reading MOs from coefficient file
 Reading MOs from coefficient file
 An unrestricted Hartree-Fock SCF calculation will be
 performed using Pulay DIIS extrapolation
 SCF converges when DIIS error is below 1.0E-08
 using 8 threads for integral computing 
 ---------------------------------------
  Cycle       Energy         DIIS Error
 ---------------------------------------
    1    -435.3843051954      1.45E-06
    2    -435.3843052008      7.02E-07
    3    -435.3843052017      4.06E-07
    4    -435.3843052021      6.11E-08
    5    -435.3843052021      1.78E-08
    6    -435.3843052021      5.19E-09 Convergence criterion met
 ---------------------------------------
 <S^2> = 0.0000
 SCF time:  CPU 6.22 s  wall 1.88 s
 SCF   energy in the final basis set = -435.3843052021
 Total energy in the final basis set = -435.3843052021
================================================================================
|                                                                              |
|                                 A D C  M A N                                 |
|                                                                              |
 ------------------------------------------------------------------------------ 
|                                                                              |
| Components:                                                                  |
|                                                                              |
| - libvmm - 1.2-release                                                       |
|   Authors:                                                                   |
|   Evgeny Epifanovsky, Ilya Kaliman                                           |
|                                                                              |
| - libtensor - 2.4-trunk                                                      |
|   Authors:                                                                   |
|   Evgeny Epifanovsky, Michael Wormit, Dmitry Zuev, Sam Manzer                |
|                                                                              |
| - libwfa - 1.1-beta                                                          |
|   Authors:                                                                   |
|   Felix Plasser, Stefanie Baeppler, Benjamin Thomitzni, Michael Wormit       |
|                                                                              |
| - libadc - 1.0-beta                                                          |
|   Authors:                                                                   |
|   Michael Wormit, Philipp H. P. Harbach, Caroline Krauter, Dirk Rehn,        |
|   Matthias Schneider, Jan Wenzel                                             |
|                                                                              |
| - adcman - 2.4-beta                                                          |
|   Authors:                                                                   |
|   Michael Wormit, Philipp H. P. Harbach, Caroline Krauter, Dirk Rehn,        |
|   Jan Wenzel, Andreas Dreuw                                                  |
|                                                                              |
| Authors of earlier versions of ADCMAN:                                       |
| Andreas Dreuw, Jan Hendrik Starcke, Dirk Rehn, Michael Wormit                |
|                                                                              |
================================================================================

 
 Alpha MOs, Unrestricted
 -- Occupied --                  
-26.560 -26.541 -26.532 -25.967 -11.744  -1.993  -1.890  -1.860
  1 A     2 A     3 A     4 A     5 A     6 A     7 A     8 A                  
 -1.222  -1.133  -1.059  -1.054  -1.000  -0.881  -0.880  -0.858
  9 A    10 A    11 A    12 A    13 A    14 A    15 A    16 A                  
 -0.841  -0.823  -0.332  -0.332  -0.324
 17 A    18 A    19 A    20 A    21 A                                          
 -- Virtual --                   
  0.015   0.257   0.408   0.419   0.563   0.611   0.654   0.707
 22 A    23 A    24 A    25 A    26 A    27 A    28 A    29 A                  
  1.169   1.193   1.204   1.329   1.330   1.396   1.452   1.456
 30 A    31 A    32 A    33 A    34 A    35 A    36 A    37 A                  
  1.486   1.490   1.500   1.544   1.615   1.744   1.751   1.841
 38 A    39 A    40 A    41 A    42 A    43 A    44 A    45 A                  
  1.861   1.876   1.951   1.955   1.985   2.102   2.114   2.176
 46 A    47 A    48 A    49 A    50 A    51 A    52 A    53 A                  
  2.185   2.225   2.287   2.324   2.412   2.412   2.435   2.439
 54 A    55 A    56 A    57 A    58 A    59 A    60 A    61 A                  
  2.501   2.817   2.900   2.941   3.226   3.279   3.463   3.479
 62 A    63 A    64 A    65 A    66 A    67 A    68 A    69 A                  
  3.522   4.149   4.525   5.072   5.211   5.535
 70 A    71 A    72 A    73 A    74 A    75 A                                  
 
 Beta MOs, Unrestricted
 -- Occupied --                  
-26.560 -26.541 -26.532 -25.967 -11.744  -1.993  -1.890  -1.860
  1 A     2 A     3 A     4 A     5 A     6 A     7 A     8 A                  
 -1.222  -1.133  -1.059  -1.054  -1.000  -0.881  -0.880  -0.858
  9 A    10 A    11 A    12 A    13 A    14 A    15 A    16 A                  
 -0.841  -0.823  -0.332  -0.332  -0.324
 17 A    18 A    19 A    20 A    21 A                                          
 -- Virtual --                   
  0.015   0.257   0.408   0.419   0.563   0.611   0.654   0.707
 22 A    23 A    24 A    25 A    26 A    27 A    28 A    29 A                  
  1.169   1.193   1.204   1.329   1.330   1.396   1.452   1.456
 30 A    31 A    32 A    33 A    34 A    35 A    36 A    37 A                  
  1.486   1.490   1.500   1.544   1.615   1.744   1.751   1.841
 38 A    39 A    40 A    41 A    42 A    43 A    44 A    45 A                  
  1.861   1.876   1.951   1.955   1.985   2.102   2.114   2.176
 46 A    47 A    48 A    49 A    50 A    51 A    52 A    53 A                  
  2.185   2.225   2.287   2.324   2.412   2.412   2.435   2.439
 54 A    55 A    56 A    57 A    58 A    59 A    60 A    61 A                  
  2.501   2.817   2.900   2.941   3.226   3.279   3.463   3.479
 62 A    63 A    64 A    65 A    66 A    67 A    68 A    69 A                  
  3.522   4.149   4.525   5.072   5.211   5.535
 70 A    71 A    72 A    73 A    74 A    75 A                                  
 

--------------------------------------------------------------------------------
                                   HF Summary                                   
--------------------------------------------------------------------------------
  Energy:                                                 -435.3843052021 a.u.
  Dip. moment [a.u.]:                  [ -56.769114,  183.057294,    1.387599]
  Total dipole [Debye]:                                             487.158349
  <r^2> [a.u.]:                        [ 174.720835,  966.629333,  100.039145]
  Total <r^2> [a.u.]:                                              1241.389313
--------------------------------------------------------------------------------

--------------------------------------------------------------------------------
                                 MP(2) Summary                                  
--------------------------------------------------------------------------------
  Energy contribution:                                      -0.7967061488 a.u.
  Total energy:                                           -436.1810113509 a.u.
  Dip. moment [a.u.]:                  [ -56.693861,  183.259228,    1.295107]
  Total dipole [Debye]:                                             487.590386
  <r^2> [a.u.]:                        [ 174.343513,  968.218773,   99.858152]
  Total <r^2> [a.u.]:                                              1242.420438
--------------------------------------------------------------------------------
  Starting Davidson ... 
--------------------------------------------------------------------------------
   It NVec Conv  Avg. Norm  Max. Norm  Conv. states           Remark
--------------------------------------------------------------------------------
        20    0  2.087e-01  1.062e+00 10.9883 n n n n n n n n Guess.
    1   40    0  4.858e-02  5.103e-01 10.8314 n n n n n n n n 
    2   60    0  1.958e-02  3.651e-01 10.8301 n n n n n n n n 
    3   80    0  3.143e-03  4.589e-02 10.8301 n n n n n n n n 
    4  100    0  1.471e-03  1.857e-02 10.8301 n n n n n n n n 
    5   40    0  8.611e-04  1.040e-02 10.8301 n n n n n n n n Subspace collapsed.
    6   60    0  9.303e-04  1.348e-02 10.8301 n n n n n n n n 
    7   80    1  1.334e-03  2.127e-02 10.8301 y n n n n n n n 
    8  100    2  1.389e-03  2.241e-02 10.8301 y y n n n n n n 
    9   40    6  6.540e-04  1.104e-02 10.8301 y y n n y y y y Subspace collapsed.
   10   60    6  3.769e-04  6.270e-03 10.8301 y y n n y y y y 
   11   80   11  2.952e-04  4.202e-03 10.8301 y y y y y y y y 
   12  100   14  3.394e-04  4.780e-03 10.8301 y y y y y y y y 
   13   40   14  2.149e-04  3.148e-03 10.8301 y y y y y y y y Subspace collapsed.
   14   60   14  2.710e-04  4.581e-03 10.8301 y y y y y y y y 
   15   80   15  3.611e-04  6.150e-03 10.8301 y y y y y y y y 
   16   98   16  4.238e-04  6.950e-03 10.8301 y y y y y y y y 
   17  100   16  4.161e-04  6.767e-03 10.8301 y y y y y y y y 
   18   38   16  2.239e-04  3.624e-03 10.8301 y y y y y y y y Subspace collapsed.
   19   56   16  1.493e-04  2.243e-03 10.8301 y y y y y y y y 
   20   72   16  1.128e-04  1.705e-03 10.8301 y y y y y y y y 
   21   72   16  1.128e-04  1.705e-03 10.8301 y y y y y y y y 
   22   92   16  1.118e-04  1.685e-03 10.8301 y y y y y y y y 
   23   92   16  1.118e-04  1.685e-03 10.8301 y y y y y y y y 
   24   92   16  1.118e-04  1.685e-03 10.8301 y y y y y y y y 
   25  100   16  1.133e-04  1.748e-03 10.8301 y y y y y y y y 
   26   20   16  1.133e-04  1.748e-03 10.8301 y y y y y y y y Subspace collapsed.
   27   20   16  1.133e-04  1.748e-03 10.8301 y y y y y y y y 
   28   23   16  1.123e-04  1.748e-03 10.8301 y y y y y y y y 
   29   36   16  9.248e-05  1.355e-03 10.8301 y y y y y y y y 
   30   48   16  1.149e-04  1.739e-03 10.8301 y y y y y y y y 
   31   60   16  1.260e-04  1.835e-03 10.8301 y y y y y y y y 
   32   63   16  1.286e-04  1.857e-03 10.8301 y y y y y y y y 
   33   65   16  1.280e-04  1.845e-03 10.8301 y y y y y y y y 
   34   66   16  1.287e-04  1.857e-03 10.8301 y y y y y y y y 
   35   66   16  1.287e-04  1.857e-03 10.8301 y y y y y y y y 
   36   81   16  1.866e-04  2.675e-03 10.8301 y y y y y y y y 
   37   87   16  1.354e-04  2.312e-03 10.8301 y y y y y y y y 
   38   93   16  6.341e-05  1.056e-03 10.8301 y y y y y y y y 
   39   99   16  3.147e-05  5.789e-04 10.8301 y y y y y y y y 
   40  100   16  3.152e-05  5.795e-04 10.8301 y y y y y y y y 
   41   26   16  1.432e-05  2.536e-04 10.8301 y y y y y y y y Subspace collapsed.
   42   32   16  1.091e-05  2.049e-04 10.8301 y y y y y y y y 
   43   38   17  6.269e-06  1.179e-04 10.8301 y y y y y y y y 
   44   44   17  5.130e-06  9.999e-05 10.8301 y y y y y y y y 
   45   50   17  4.045e-06  7.982e-05 10.8301 y y y y y y y y 
   46   56   17  2.081e-06  4.093e-05 10.8301 y y y y y y y y 
   47   62   18  1.373e-06  2.687e-05 10.8301 y y y y y y y y 
   48   68   18  8.813e-07  1.713e-05 10.8301 y y y y y y y y 
   49   74   18  1.008e-06  1.943e-05 10.8301 y y y y y y y y 
   50   74   18  1.008e-06  1.943e-05 10.8301 y y y y y y y y 
   51   74   18  1.008e-06  1.943e-05 10.8301 y y y y y y y y 
   52   94   18  8.255e-07  1.611e-05 10.8301 y y y y y y y y 
   53   94   18  8.255e-07  1.611e-05 10.8301 y y y y y y y y 
   54   94   18  8.255e-07  1.611e-05 10.8301 y y y y y y y y 
   55   95   18  8.317e-07  1.624e-05 10.8301 y y y y y y y y 
   56   95   18  8.317e-07  1.624e-05 10.8301 y y y y y y y y 
   57   95   18  8.317e-07  1.624e-05 10.8301 y y y y y y y y 
   58   95   18  8.317e-07  1.624e-05 10.8301 y y y y y y y y 
   59  100   18  8.304e-07  1.624e-05 10.8301 y y y y y y y y 
--------------------------------------------------------------------------------
  Davidson Summary: 
 ------------------------------------------------------------
  State  0: excitation energy =  10.8301 a.u.   (converged)
  State  1: excitation energy =  10.9000 a.u.   (converged)
  State  2: excitation energy =  11.1691 a.u.   (converged)
  State  3: excitation energy =  11.2280 a.u.   (converged)
  State  4: excitation energy =  11.2391 a.u.   (converged)
  State  5: excitation energy =  11.2847 a.u.   (converged)
  State  6: excitation energy =  11.3198 a.u.   (converged)
  State  7: excitation energy =  11.3629 a.u.   (converged)
  State  8: excitation energy =  11.4860 a.u.   (converged)
  State  9: excitation energy =  11.5447 a.u.   (converged)
  State 10: excitation energy =  11.5633 a.u.   (converged)
  State 11: excitation energy =  11.5692 a.u.   (converged)
  State 12: excitation energy =  11.5764 a.u.   (converged)
  State 13: excitation energy =  11.5857 a.u.   (converged)
  State 14: excitation energy =  11.6720 a.u.   (converged)
  State 15: excitation energy =  11.7048 a.u.   (converged)
  State 16: excitation energy =  12.1895 a.u.   (converged)
  State 17: excitation energy =  12.1962 a.u.   (converged)
  State 18: excitation energy =  12.2108 a.u.   (not converged)
  State 19: excitation energy =  12.2159 a.u.   (not converged)
 ------------------------------------------------------------


--------------------------------------------------------------------------------
                             Excited State Summary
--------------------------------------------------------------------------------

  Excited state  1 (A)                                             [converged]
  ----------------------------------------------------------------------------
  Term symbol:  2 (-) A                                     R^2 =  1.26694e-13

  Total energy:                                           -425.3509258808 a.u.
  Excitation energy:                                             294.701613 eV

  Osc. strength:                                                      0.000000
  Trans. dip. moment [a.u.]:           [   0.000000,    0.000000,   -0.000000]
  <i|r^2|0> [a.u.]:                    [  -0.000000,    0.000000,    0.000000]

  V1^2 = 0.9587, V2^2 = 0.0413

  Important amplitudes:
     core i     occ j      vir a      vir b          v   
    ------------------------------------------------------
     5 (A) B              22 (A) B                 0.6414
     5 (A) A              22 (A) A                -0.6414
    ------------------------------------------------------
  ----------------------------------------------------------------------------


  Excited state  2 (A)                                             [converged]
  ----------------------------------------------------------------------------
  Term symbol:  3 (-) A                                     R^2 =  7.27725e-14

  Total energy:                                           -425.2810044852 a.u.
  Excitation energy:                                             296.604271 eV

  Osc. strength:                                                      0.107122
  Trans. dip. moment [a.u.]:           [  -0.040073,   -0.108307,    0.037487]
  <i|r^2|0> [a.u.]:                    [   0.072958,   -1.185289,   -0.035046]

  V1^2 = 0.9538, V2^2 = 0.0462

  Important amplitudes:
     core i     occ j      vir a      vir b          v   
    ------------------------------------------------------
     5 (A) A              22 (A) A                -0.6563
     5 (A) B              22 (A) B                -0.6563
    ------------------------------------------------------
  ----------------------------------------------------------------------------


  Excited state  3 (A)                                             [converged]
  ----------------------------------------------------------------------------
  Term symbol:  4 (-) A                                     R^2 =  9.86238e-14

  Total energy:                                           -425.0119107576 a.u.
  Excitation energy:                                             303.926684 eV

  Osc. strength:                                                      0.000000
  Trans. dip. moment [a.u.]:           [   0.000000,    0.000000,   -0.000000]
  <i|r^2|0> [a.u.]:                    [  -0.000000,    0.000000,    0.000000]

  V1^2 = 0.9320, V2^2 = 0.0680

  Important amplitudes:
     core i     occ j      vir a      vir b          v   
    ------------------------------------------------------
     5 (A) B              23 (A) B                -0.5972
     5 (A) A              23 (A) A                 0.5972
    ------------------------------------------------------
  ----------------------------------------------------------------------------


  Excited state  4 (A)                                             [converged]
  ----------------------------------------------------------------------------
  Term symbol:  5 (-) A                                     R^2 =  5.21492e-14

  Total energy:                                           -424.9530226340 a.u.
  Excitation energy:                                             305.529111 eV

  Osc. strength:                                                      0.012586
  Trans. dip. moment [a.u.]:           [   0.012304,    0.027741,   -0.027576]
  <i|r^2|0> [a.u.]:                    [  -0.037784,    0.276936,    0.009781]

  V1^2 = 0.9216, V2^2 = 0.0784

  Important amplitudes:
     core i     occ j      vir a      vir b          v   
    ------------------------------------------------------
     5 (A) A              23 (A) A                -0.6387
     5 (A) B              23 (A) B                -0.6387
    ------------------------------------------------------
  ----------------------------------------------------------------------------


  Excited state  5 (A)                                             [converged]
  ----------------------------------------------------------------------------
  Term symbol:  6 (-) A                                     R^2 =  6.36057e-14

  Total energy:                                           -424.9419237541 a.u.
  Excitation energy:                                             305.831127 eV

  Osc. strength:                                                      0.000000
  Trans. dip. moment [a.u.]:           [  -0.000000,    0.000000,    0.000000]
  <i|r^2|0> [a.u.]:                    [   0.000000,    0.000000,   -0.000000]

  V1^2 = 0.9541, V2^2 = 0.0459

  Important amplitudes:
     core i     occ j      vir a      vir b          v   
    ------------------------------------------------------
     5 (A) B              27 (A) B                -0.5221
     5 (A) A              27 (A) A                 0.5221
    ------------------------------------------------------
  ----------------------------------------------------------------------------


  Excited state  6 (A)                                             [converged]
  ----------------------------------------------------------------------------
  Term symbol:  7 (-) A                                     R^2 =  1.61523e-13

  Total energy:                                           -424.8962814964 a.u.
  Excitation energy:                                             307.073116 eV

  Osc. strength:                                                      0.000000
  Trans. dip. moment [a.u.]:           [  -0.000000,   -0.000000,   -0.000000]
  <i|r^2|0> [a.u.]:                    [   0.000000,   -0.000000,    0.000000]

  V1^2 = 0.9525, V2^2 = 0.0475

  Important amplitudes:
     core i     occ j      vir a      vir b          v   
    ------------------------------------------------------
     5 (A) B              28 (A) B                -0.5246
     5 (A) A              28 (A) A                 0.5246
    ------------------------------------------------------
  ----------------------------------------------------------------------------


  Excited state  7 (A)                                             [converged]
  ----------------------------------------------------------------------------
  Term symbol:  8 (-) A                                     R^2 =  6.60293e-14

  Total energy:                                           -424.8612060280 a.u.
  Excitation energy:                                             308.027568 eV

  Osc. strength:                                                      0.120192
  Trans. dip. moment [a.u.]:           [   0.092740,   -0.059568,   -0.061463]
  <i|r^2|0> [a.u.]:                    [  -0.179759,   -0.647781,    0.058239]

  V1^2 = 0.9452, V2^2 = 0.0548

  Important amplitudes:
     core i     occ j      vir a      vir b          v   
    ------------------------------------------------------
     5 (A) A              24 (A) A                 0.4885
     5 (A) B              24 (A) B                 0.4885
    ------------------------------------------------------
  ----------------------------------------------------------------------------


  Excited state  8 (A)                                             [converged]
  ----------------------------------------------------------------------------
  Term symbol:  9 (-) A                                     R^2 =  4.04283e-14

  Total energy:                                           -424.8181429127 a.u.
  Excitation energy:                                             309.199375 eV

  Osc. strength:                                                      0.112327
  Trans. dip. moment [a.u.]:           [  -0.073319,   -0.012147,   -0.096462]
  <i|r^2|0> [a.u.]:                    [   0.141784,   -0.131018,    0.077567]

  V1^2 = 0.9421, V2^2 = 0.0579

  Important amplitudes:
     core i     occ j      vir a      vir b          v   
    ------------------------------------------------------
     5 (A) A              25 (A) A                -0.4763
     5 (A) B              25 (A) B                -0.4763
    ------------------------------------------------------
  ----------------------------------------------------------------------------


  Excited state  9 (A)                                             [converged]
  ----------------------------------------------------------------------------
  Term symbol:  10 (-) A                                    R^2 =  1.65855e-13

  Total energy:                                           -424.6950542256 a.u.
  Excitation energy:                                             312.548789 eV

  Osc. strength:                                                      0.000000
  Trans. dip. moment [a.u.]:           [  -0.000000,   -0.000000,    0.000000]
  <i|r^2|0> [a.u.]:                    [  -0.000000,   -0.000000,   -0.000000]

  V1^2 = 0.9203, V2^2 = 0.0797

  Important amplitudes:
     core i     occ j      vir a      vir b          v   
    ------------------------------------------------------
     5 (A) B              26 (A) B                 0.5811
     5 (A) A              26 (A) A                -0.5811
    ------------------------------------------------------
  ----------------------------------------------------------------------------


  Excited state 10 (A)                                             [converged]
  ----------------------------------------------------------------------------
  Term symbol:  11 (-) A                                    R^2 =  1.43009e-13

  Total energy:                                           -424.6363588877 a.u.
  Excitation energy:                                             314.145970 eV

  Osc. strength:                                                      0.019744
  Trans. dip. moment [a.u.]:           [  -0.015857,   -0.043991,    0.019462]
  <i|r^2|0> [a.u.]:                    [   0.009529,   -0.502603,   -0.036838]

  V1^2 = 0.9191, V2^2 = 0.0809

  Important amplitudes:
     core i     occ j      vir a      vir b          v   
    ------------------------------------------------------
     5 (A) A              26 (A) A                 0.6336
     5 (A) B              26 (A) B                 0.6336
    ------------------------------------------------------
  ----------------------------------------------------------------------------


  Excited state 11 (A)                                             [converged]
  ----------------------------------------------------------------------------
  Term symbol:  12 (-) A                                    R^2 =  1.40132e-13

  Total energy:                                           -424.6177533266 a.u.
  Excitation energy:                                             314.652253 eV

  Osc. strength:                                                      0.000000
  Trans. dip. moment [a.u.]:           [  -0.000000,    0.000000,    0.000000]
  <i|r^2|0> [a.u.]:                    [   0.000000,    0.000000,   -0.000000]

  V1^2 = 0.8955, V2^2 = 0.1045

  Important amplitudes:
     core i     occ j      vir a      vir b          v   
    ------------------------------------------------------
     5 (A) B              24 (A) B                 0.5097
     5 (A) A              24 (A) A                -0.5097
    ------------------------------------------------------
  ----------------------------------------------------------------------------


  Excited state 12 (A)                                             [converged]
  ----------------------------------------------------------------------------
  Term symbol:  13 (-) A                                    R^2 =  1.96395e-13

  Total energy:                                           -424.6118303202 a.u.
  Excitation energy:                                             314.813426 eV

  Osc. strength:                                                      0.000000
  Trans. dip. moment [a.u.]:           [   0.000000,   -0.000000,   -0.000000]
  <i|r^2|0> [a.u.]:                    [  -0.000000,   -0.000000,    0.000000]

  V1^2 = 0.8961, V2^2 = 0.1039

  Important amplitudes:
     core i     occ j      vir a      vir b          v   
    ------------------------------------------------------
     5 (A) B              25 (A) B                 0.5301
     5 (A) A              25 (A) A                -0.5301
    ------------------------------------------------------
  ----------------------------------------------------------------------------


  Excited state 13 (A)                                             [converged]
  ----------------------------------------------------------------------------
  Term symbol:  14 (-) A                                    R^2 =  1.60862e-13

  Total energy:                                           -424.6046587053 a.u.
  Excitation energy:                                             315.008576 eV

  Osc. strength:                                                      0.027289
  Trans. dip. moment [a.u.]:           [   0.043892,   -0.027235,   -0.029457]
  <i|r^2|0> [a.u.]:                    [  -0.083464,   -0.294815,    0.027961]

  V1^2 = 0.8992, V2^2 = 0.1008

  Important amplitudes:
     core i     occ j      vir a      vir b          v   
    ------------------------------------------------------
     5 (A) A              27 (A) A                 0.4833
     5 (A) B              27 (A) B                 0.4833
    ------------------------------------------------------
  ----------------------------------------------------------------------------


  Excited state 14 (A)                                             [converged]
  ----------------------------------------------------------------------------
  Term symbol:  15 (-) A                                    R^2 =  1.90610e-13

  Total energy:                                           -424.5953120013 a.u.
  Excitation energy:                                             315.262913 eV

  Osc. strength:                                                      0.034878
  Trans. dip. moment [a.u.]:           [   0.039007,    0.004133,    0.054562]
  <i|r^2|0> [a.u.]:                    [  -0.077306,    0.041753,   -0.047213]

  V1^2 = 0.9016, V2^2 = 0.0984

  Important amplitudes:
     core i     occ j      vir a      vir b          v   
    ------------------------------------------------------
     5 (A) A              25 (A) A                -0.4658
     5 (A) B              25 (A) B                -0.4658
    ------------------------------------------------------
  ----------------------------------------------------------------------------


  Excited state 15 (A)                                             [converged]
  ----------------------------------------------------------------------------
  Term symbol:  16 (-) A                                    R^2 =  9.30952e-13

  Total energy:                                           -424.5089704387 a.u.
  Excitation energy:                                             317.612386 eV

  Osc. strength:                                                      0.000000
  Trans. dip. moment [a.u.]:           [   0.000000,    0.000000,   -0.000000]
  <i|r^2|0> [a.u.]:                    [  -0.000000,    0.000000,   -0.000000]

  V1^2 = 0.9013, V2^2 = 0.0987

  Important amplitudes:
     core i     occ j      vir a      vir b          v   
    ------------------------------------------------------
     5 (A) B              29 (A) B                -0.5762
     5 (A) A              29 (A) A                 0.5762
    ------------------------------------------------------
  ----------------------------------------------------------------------------


  Excited state 16 (A)                                             [converged]
  ----------------------------------------------------------------------------
  Term symbol:  17 (-) A                                    R^2 =  7.57552e-13

  Total energy:                                           -424.4762344088 a.u.
  Excitation energy:                                             318.503179 eV

  Osc. strength:                                                      0.017502
  Trans. dip. moment [a.u.]:           [   0.016406,    0.042126,   -0.014116]
  <i|r^2|0> [a.u.]:                    [  -0.046784,    0.442963,   -0.003112]

  V1^2 = 0.9033, V2^2 = 0.0967

  Important amplitudes:
     core i     occ j      vir a      vir b          v   
    ------------------------------------------------------
     5 (A) A              29 (A) A                -0.6199
     5 (A) B              29 (A) B                -0.6199
    ------------------------------------------------------
  ----------------------------------------------------------------------------


  Excited state 17 (A)                                             [converged]
  ----------------------------------------------------------------------------
  Term symbol:  18 (-) A                                    R^2 =  2.44343e-08

  Total energy:                                           -423.9915048916 a.u.
  Excitation energy:                                             331.693340 eV

  Osc. strength:                                                      0.000000
  Trans. dip. moment [a.u.]:           [   0.000000,    0.000000,    0.000000]
  <i|r^2|0> [a.u.]:                    [  -0.000000,    0.000000,   -0.000000]

  V1^2 = 0.8746, V2^2 = 0.1254

  Important amplitudes:
     core i     occ j      vir a      vir b          v   
    ------------------------------------------------------
     5 (A) A              30 (A) A                -0.5340
     5 (A) B              30 (A) B                 0.5340
    ------------------------------------------------------
  ----------------------------------------------------------------------------


  Excited state 18 (A)                                             [converged]
  ----------------------------------------------------------------------------
  Term symbol:  19 (-) A                                    R^2 =  2.44214e-07

  Total energy:                                           -423.9848279669 a.u.
  Excitation energy:                                             331.875028 eV

  Osc. strength:                                                      0.007936
  Trans. dip. moment [a.u.]:           [   0.016006,    0.004704,    0.026413]
  <i|r^2|0> [a.u.]:                    [  -0.031718,    0.052676,   -0.034893]

  V1^2 = 0.8731, V2^2 = 0.1269

  Important amplitudes:
     core i     occ j      vir a      vir b          v   
    ------------------------------------------------------
     5 (A) A              30 (A) A                 0.5636
     5 (A) B              30 (A) B                 0.5636
    ------------------------------------------------------
  ----------------------------------------------------------------------------


  Excited state 19 (A)                                         [not converged]
  ----------------------------------------------------------------------------
  Term symbol:  20 (-) A                                    R^2 =  3.48927e-06

  Total energy:                                           -423.9701730359 a.u.
  Excitation energy:                                             332.273809 eV


  V1^2 = 0.8706, V2^2 = 0.1294

  Important amplitudes:
     core i     occ j      vir a      vir b          v   
    ------------------------------------------------------
     5 (A) A              31 (A) A                 0.4616
     5 (A) B              31 (A) B                -0.4616
    ------------------------------------------------------
  ----------------------------------------------------------------------------


  Excited state 20 (A)                                         [not converged]
  ----------------------------------------------------------------------------
  Term symbol:  21 (-) A                                    R^2 =  1.62358e-05

  Total energy:                                           -423.9651153888 a.u.
  Excitation energy:                                             332.411435 eV


  V1^2 = 0.8695, V2^2 = 0.1305

  Important amplitudes:
     core i     occ j      vir a      vir b          v   
    ------------------------------------------------------
     5 (A) B              31 (A) B                -0.5221
     5 (A) A              31 (A) A                -0.5221
    ------------------------------------------------------
  ----------------------------------------------------------------------------


--------------------------------------------------------------------------------
  Time of ADC calculation:  CPU 3335.42 s  wall 2068.19 s
================================================================================
 
 --------------------------------------------------------------
 
                    Orbital Energies (a.u.)
 --------------------------------------------------------------
 
 Alpha MOs
 -- Occupied --
-26.560 -26.541 -26.532 -25.967 -11.744  -1.993  -1.890  -1.860
 -1.222  -1.133  -1.059  -1.054  -1.000  -0.881  -0.880  -0.858
 -0.841  -0.823  -0.332  -0.332  -0.324
 -- Virtual --
  0.015   0.257   0.408   0.419   0.563   0.611   0.654   0.707
  1.169   1.193   1.204   1.329   1.330   1.396   1.452   1.456
  1.486   1.490   1.500   1.544   1.615   1.744   1.751   1.841
  1.861   1.876   1.951   1.955   1.985   2.102   2.114   2.176
  2.185   2.225   2.287   2.324   2.412   2.412   2.435   2.439
  2.501   2.817   2.900   2.941   3.226   3.279   3.463   3.479
  3.522   4.149   4.525   5.072   5.211   5.535
 
 Beta MOs
 -- Occupied --
-26.560 -26.541 -26.532 -25.967 -11.744  -1.993  -1.890  -1.860
 -1.222  -1.133  -1.059  -1.054  -1.000  -0.881  -0.880  -0.858
 -0.841  -0.823  -0.332  -0.332  -0.324
 -- Virtual --
  0.015   0.257   0.408   0.419   0.563   0.611   0.654   0.707
  1.169   1.193   1.204   1.329   1.330   1.396   1.452   1.456
  1.486   1.490   1.500   1.544   1.615   1.744   1.751   1.841
  1.861   1.876   1.951   1.955   1.985   2.102   2.114   2.176
  2.185   2.225   2.287   2.324   2.412   2.412   2.435   2.439
  2.501   2.817   2.900   2.941   3.226   3.279   3.463   3.479
  3.522   4.149   4.525   5.072   5.211   5.535
 --------------------------------------------------------------
 
          Ground-State Mulliken Net Atomic Charges

     Atom                 Charge (a.u.)    Spin (a.u.)
  --------------------------------------------------------
      1 C                     1.103165       0.000000
      2 F                    -0.090290       0.000000
      3 F                    -0.111120       0.000000
      4 F                    -0.856689       0.000000
      5 F                    -0.045066       0.000000
  --------------------------------------------------------
  Sum of atomic charges =     0.000000
  Sum of spin   charges =     0.000000

 -----------------------------------------------------------------
                    Cartesian Multipole Moments
 -----------------------------------------------------------------
    Charge (ESU x 10^10)
                 0.0000
    Dipole Moment (Debye)
         X       3.5661      Y       9.4816      Z      -4.0155
       Tot      10.8969
    Quadrupole Moments (Debye-Ang)
        XX     -29.1993     XY      -2.4222     YY      10.8936
        XZ       4.4964     YZ      -5.3009     ZZ     -24.0858
    Octopole Moments (Debye-Ang^2)
       XXX      59.1866    XXY     -53.5982    XYY       1.9524
       YYY     -52.7025    XXZ      -6.1543    XYZ       4.0193
       YYZ     -12.5510    XZZ      18.2059    YZZ     -51.5179
       ZZZ      -3.4484
    Hexadecapole Moments (Debye-Ang^3)
      XXXX    -165.8508   XXXY     101.0563   XXYY    -164.8329
      XYYY      51.2876   YYYY    -554.6316   XXXZ      15.8796
      XXYZ       0.6556   XYYZ       8.2319   YYYZ     -21.6720
      XXZZ     -41.4631   XYZZ      31.5213   YYZZ    -154.0647
      XZZZ      10.6216   YZZZ      12.2699   ZZZZ     -82.4789
 -----------------------------------------------------------------
Archival summary:
1\1\tp-linux1\SP\HF\6-31G*\41\thomas\ThuMar1601:06:002017ThuMar1601:06:002017\0\\#,HF,6-31G*,\\0,1\C\F,1,1.16886\F,1,1.20236,2,120.936\F,1,1.22005,2,120.186,3,168.783,0\F,1,2.63742,2,88.8065,3,85.6564,0\\HF=-435.384305\\@

 Total job time:  2072.22s(wall), 3345.56s(cpu) 
 Thu Mar 16 01:06:00 2017

        *************************************************************
        *                                                           *
        *  Thank you very much for using Q-Chem.  Have a nice day.  *
        *                                                           *
        *************************************************************


0 sent ACK to 0 
now end server 0 ... 
cleanup process ... done
