
Running Job 1 of 2 ddtraj1t37.inp
qchem ddtraj1t37.inp_4043.0 /scratch/qchem/qchem4043/ 1
/mnt/software/qchem/bin/mpi/mpirun_qchem -machinefile /mnt/software/qchem/bin/mpi/machines -np 1 /mnt/software/qchem/exe/qcprog.exe ddtraj1t37.inp_4043.0 /scratch/qchem/qchem4043/

Process 0 of 1 is on tp-linux1 - thread support 0
initial socket setup ...start
initial socket setup ...done 
now start server 0 ... 

cmd = ssh tp-linux1 /mnt/software/qchem/bin/get_hostid 2008437384 > /scratch/qchem/qchem4043/lic.dat
                  Welcome to Q-Chem
     A Quantum Leap Into The Future Of Chemistry


 Q-Chem 4.3, Q-Chem, Inc., Pleasanton, CA (2015)

 Y. Shao,  Z. Gan,  E. Epifanovsky,  A. T. B. Gilbert,  M. Wormit,  
 J. Kussmann,  A. W. Lange,  A. Behn,  J. Deng,  X. Feng,  D. Ghosh,  
 M. Goldey,  P. R. Horn,  L. D. Jacobson,  I. Kaliman,  R. Z. Khaliullin,  
 T. Kus,  A. Landau,  J. Liu,  E. I. Proynov,  Y. M. Rhee,  R. M. Richard,  
 M. A. Rohrdanz,  R. P. Steele,  E. J. Sundstrom,  H. L. Woodcock III,  
 P. M. Zimmerman,  D. Zuev,  B. Albrecht,  E. Alguire,  B. Austin,  
 S. A. Baeppler,  G. J. O. Beran,  Y. A. Bernard,  E. Berquist,  
 K. Brandhorst,  K. B. Bravaya,  S. T. Brown,  D. Casanova,  C.-M. Chang,  
 Y. Chen,  S. H. Chien,  K. D. Closser,  D. L. Crittenden,  M. Diedenhofen,  
 R. A. DiStasio Jr.,  H. Do,  A. D. Dutoi,  R. G. Edgar,  P.-T. Fang,  
 S. Fatehi,  Q. Feng,  L. Fusti-Molnar,  A. Ghysels,  
 A. Golubeva-Zadorozhnaya,  J. Gomes,  A. Gunina,  M. W. D. Hanson-Heine,  
 P. H. P. Harbach,  A. W. Hauser,  E. G. Hohenstein,  Z. C. Holden,  K. Hui,  
 T.-C. Jagau,  H. Ji,  B. Kaduk,  K. Khistyaev,  Jaehoon Kim,  Jihan Kim,  
 R. A. King,  P. Klunzinger,  D. Kosenkov,  T. Kowalczyk,  C. M. Krauter,  
 K. U. Lao,  A. Laurent,  K. V. Lawler,  S. Lehtola,  S. V. Levchenko,  
 C. Y. Lin,  Y.-S. Lin,  F. Liu,  E. Livshits,  R. C. Lochan,  A. Luenser,  
 P. Manohar,  S. F. Manzer,  S.-P. Mao,  N. Mardirossian,  A. V. Marenich,  
 L. A. Martinez-Martinez,  S. A. Maurer,  N. J. Mayhall,  K. Nanda,  
 C. M. Oana,  R. Olivares-Amaya,  D. P. O'Neill,  J. A. Parkhill,  
 T. M. Perrine,  R. Peverati,  P. A. Pieniazek,  F. Plasser,  A. Prociuk,  
 D. R. Rehn,  E. Rosta,  N. J. Russ,  N. Sergueev,  S. M. Sharada,  
 S. Sharma,  D. W. Small,  A. Sodt,  T. Stauch,  T. Stein,  D. Stuck,  
 Y.-C. Su,  A. J. W. Thom,  T. Tsuchimochi,  L. Vogt,  O. Vydrov,  T. Wang,  
 M. A. Watson,  J. Wenzel,  A. White,  C. F. Williams,  V. Vanovschi,  
 S. Yeganeh,  S. R. Yost,  Z.-Q. You,  I. Y. Zhang,  X. Zhang,  Y. Zhao,  
 B. R. Brooks,  G. K. L. Chan,  D. M. Chipman,  C. J. Cramer,  
 W. A. Goddard III,  M. S. Gordon,  W. J. Hehre,  A. Klamt,  
 H. F. Schaefer III,  M. W. Schmidt,  C. D. Sherrill,  D. G. Truhlar,  
 A. Warshel,  X. Xu,  A. Aspuru-Guzik,  R. Baer,  A. T. Bell,  N. A. Besley,  
 J.-D. Chai,  A. Dreuw,  B. D. Dunietz,  T. R. Furlani,  S. R. Gwaltney,  
 C.-P. Hsu,  Y. Jung,  J. Kong,  D. S. Lambrecht,  W. Liang,  C. Ochsenfeld,  
 V. A. Rassolov,  L. V. Slipchenko,  J. E. Subotnik,  T. Van Voorhis,  
 J. M. Herbert,  A. I. Krylov,  P. M. W. Gill,  M. Head-Gordon

 Contributors to earlier versions of Q-Chem not listed above: 
 R. D. Adamson,  J. Baker,  E. F. C. Byrd,  A. K. Chakraborty,  C.-L. Cheng,  
 H. Dachsel,  R. J. Doerksen,  G. Hawkins,  A. Heyden,  S. Hirata,  
 G. Kedziora,  F. J. Keil,  C. Kelley,  P. P. Korambath,  W. Kurlancheek,  
 A. M. Lee,  M. S. Lee,  D. Liotard,  I. Lotan,  P. E. Maslen,  N. Nair,  
 D. Neuhauser,  R. Olson,  B. Peters,  J. Ritchie,  N. E. Schultz,  
 N. Shenvi,  A. C. Simmonett,  K. S. Thanthiriwatte,  Q. Wu,  W. Zhang

 Please cite Q-Chem as follows:
 Y. Shao et al., Mol. Phys. 113, 184-215 (2015)
 DOI: 10.1080/00268976.2014.952696

 Q-Chem 4.3.0 for Intel X86 Linux

 Parts of Q-Chem use Armadillo 5.200.1 (Boston Tea Smuggler).
 http://arma.sourceforge.net/

 Q-Chem begins on Thu Mar 16 06:27:38 2017  

Host: 
0

     Scratch files written to /scratch/qchem/qchem4043//
 Nov1815 1189b_ 19540  19532 5443   
 Parallel job on  1  processors
Processing $rem in /mnt/software/qchem/config/preferences.
 MEM_TOTAL  2000 

Checking the input file for inconsistencies... 	...done.

--------------------------------------------------------------
User input:
--------------------------------------------------------------
$comment
XAS calculation for the 2b valence excited for water using cvs-adc(2)-x + 6-311+G* basis set
job 1 - determination of HF orbitals
$end

$molecule
0 1
6  -0.570688  2.678433  -0.115212
9  0.688274  2.588447  -0.103857
9  -1.047245  3.488111  0.686463
9  -1.482936  0.297718  0.813409
9  -1.034744  2.816419  -1.324401
$end

$rem
jobtype      sp
sym_ignore true
exchange     hf
basis        6-31G*
unrestricted true
$end

--------------------------------------------------------------
 ----------------------------------------------------------------
             Standard Nuclear Orientation (Angstroms)
    I     Atom           X                Y                Z
 ----------------------------------------------------------------
    1      C      -0.5706880000     2.6784330000    -0.1152120000
    2      F       0.6882740000     2.5884470000    -0.1038570000
    3      F      -1.0472450000     3.4881110000     0.6864630000
    4      F      -1.4829360000     0.2977180000     0.8134090000
    5      F      -1.0347440000     2.8164190000    -1.3244010000
 ----------------------------------------------------------------
 Nuclear Repulsion Energy =   178.1736836240 hartrees
 There are       21 alpha and       21 beta electrons
 Requested basis set is 6-31G(d)
 There are 20 shells and 75 basis functions

 Total QAlloc Memory Limit   2000 MB
 Mega-Array Size        61 MB
 MEM_STATIC part        62 MB

                       Distance Matrix (Angstroms)
             C (  1)   F (  2)   F (  3)   F (  4)
   F (  2)  1.262225
   F (  3)  1.235058  2.108560
   F (  4)  2.713363  3.286787  3.222507
   F (  5)  1.302508  2.123791  2.120118  3.333911
 
 tim1(1): 
  0.000000000000000E+000
 tim1(2): 
  0.000000000000000E+000
 A cutoff of  1.0D-08 yielded    182 shell pairs
 There are      2764 function pairs
 
 -------------------------------------------------------
 OpenMP Integral Computing Module                       
 Release: version 1.0, May 2013, Q-Chem Inc. Pittsburgh 
 -------------------------------------------------------
 Integral Job Info:
 Integral job number is                      11
 Integral operator is                         1
 short-range coefficients                     0
 long-range coefficients              100000000
 Omega coefficients                           0
 if combine SR and LR in K                    0
 Integral screening is                        0
 Integral computing path is                   2
 max size of driver memory is            800000
 size of driver memory is                593474
 size of scratch memory is              2260544
 max col of scratch BK array               1296
 max len of scratch array in speh3          155
 max len of scratch index in speh4           18
 max int batch size is                      520
 min int batch size is                       52
 fixed nKL is                                52
 max L of basis functions is                  2
 order of int derivative is                   0
 number of shells is                         20
 number of basis is                          75
 number of cartesian basis is                75
 number of contracted shell pairs           182
 number of primitive shell pairs            885
 maxK2 (contraction) of shell pair           36
 max number of K2 of shell pair               1
 max number of CS2 of shell pair             27
 max number of PS2 of shell pair            180
 mem total for path MDJ                   17476
 -------------------------------------------------------
 Smallest overlap matrix eigenvalue = 3.29E-03

 Scale SEOQF with 1.000000e+00/1.000000e-01/1.000000e+00

 Standard Electronic Orientation quadrupole field applied
 Nucleus-field energy     =     0.0000000086 hartrees
 Guess from superposition of atomic densities
 Warning:  Energy on first SCF cycle will be non-variational
 An unrestricted Hartree-Fock SCF calculation will be
 performed using Pulay DIIS extrapolation
 SCF converges when DIIS error is below 1.0E-05
 using 8 threads for integral computing 
 ---------------------------------------
  Cycle       Energy         DIIS Error
 ---------------------------------------
    1    -436.0509013590      8.32E-02
    2    -435.0861719121      2.12E-02
    3    -434.6544442466      3.35E-02
    4    -435.3495486897      6.21E-03
    5    -435.3709825551      1.78E-03
    6    -435.3731904339      3.30E-04
    7    -435.3733134327      2.11E-04
    8    -435.3733408700      7.87E-05
    9    -435.3733468606      2.04E-05
   10    -435.3733482503      1.12E-05
   11    -435.3733489078      6.66E-06 Convergence criterion met
 ---------------------------------------
 <S^2> = 0.0000
 SCF time:  CPU 12.20 s  wall 2.63 s
 SCF   energy in the final basis set = -435.3733489078
 Total energy in the final basis set = -435.3733489078
 
 --------------------------------------------------------------
 
                    Orbital Energies (a.u.)
 --------------------------------------------------------------
 
 Alpha MOs
 -- Occupied --
-26.512 -26.502 -26.486 -26.126 -11.719  -1.911  -1.813  -1.781
 -1.341  -1.092  -0.989  -0.982  -0.932  -0.839  -0.830  -0.808
 -0.794  -0.780  -0.459  -0.459  -0.388
 -- Virtual --
 -0.053   0.317   0.342   0.366   0.594   0.610   0.633   0.659
  1.210   1.221   1.234   1.280   1.282   1.309   1.503   1.508
  1.515   1.522   1.533   1.538   1.632   1.633   1.658   1.843
  1.852   1.859   1.973   1.983   2.002   2.045   2.051   2.057
  2.207   2.215   2.242   2.288   2.310   2.310   2.336   2.339
  2.385   2.669   2.740   2.798   3.036   3.059   3.316   3.336
  3.381   4.023   4.491   4.577   4.664   4.997
 
 Beta MOs
 -- Occupied --
-26.512 -26.502 -26.486 -26.126 -11.719  -1.911  -1.813  -1.781
 -1.341  -1.092  -0.989  -0.982  -0.932  -0.839  -0.830  -0.808
 -0.794  -0.780  -0.459  -0.459  -0.388
 -- Virtual --
 -0.053   0.317   0.342   0.366   0.594   0.610   0.633   0.659
  1.210   1.221   1.234   1.280   1.282   1.309   1.503   1.508
  1.515   1.522   1.533   1.538   1.632   1.633   1.658   1.843
  1.852   1.859   1.973   1.983   2.002   2.045   2.051   2.057
  2.207   2.215   2.242   2.288   2.310   2.310   2.336   2.339
  2.385   2.669   2.740   2.798   3.036   3.059   3.316   3.336
  3.381   4.023   4.491   4.577   4.664   4.997
 --------------------------------------------------------------
 
          Ground-State Mulliken Net Atomic Charges

     Atom                 Charge (a.u.)    Spin (a.u.)
  --------------------------------------------------------
      1 C                     1.130225       0.000000
      2 F                    -0.178884       0.000000
      3 F                    -0.146012       0.000000
      4 F                    -0.584438       0.000000
      5 F                    -0.220891       0.000000
  --------------------------------------------------------
  Sum of atomic charges =     0.000000
  Sum of spin   charges =     0.000000

 -----------------------------------------------------------------
                    Cartesian Multipole Moments
 -----------------------------------------------------------------
    Charge (ESU x 10^10)
                 0.0000
    Dipole Moment (Debye)
         X       2.4783      Y       6.4751      Z      -2.2383
       Tot       7.2855
    Quadrupole Moments (Debye-Ang)
        XX     -28.5832     XY      -2.7207     YY      -3.5158
        XZ       3.0838     YZ      -0.9005     ZZ     -25.4586
    Octopole Moments (Debye-Ang^2)
       XXX      58.9477    XXY     -53.9893    XYY       5.9994
       YYY    -106.4264    XXZ      -4.8288    XYZ       0.8496
       YYZ      -0.7321    XZZ      19.5453    YZZ     -55.2382
       ZZZ      -2.2287
    Hexadecapole Moments (Debye-Ang^3)
      XXXX    -175.0056   XXXY      95.8311   XXYY    -177.4995
      XYYY      63.5808   YYYY    -777.8271   XXXZ      16.5654
      XXYZ       6.2175   XYYZ       1.8918   YYYZ      21.7676
      XXZZ     -46.7461   XYZZ      32.4500   YYZZ    -172.7069
      XZZZ      12.1740   YZZZ      22.6817   ZZZZ     -95.1534
 -----------------------------------------------------------------
Archival summary:
1\1\tp-linux1\SP\HF\6-31G*\41\thomas\ThuMar1606:27:412017ThuMar1606:27:412017\0\\#,HF,6-31G*,\\0,1\C\F,1,1.23506\F,1,1.26222,2,115.199\F,1,1.30251,2,113.308,3,130.503,0\F,1,2.71336,2,102.905,3,-114.431,0\\HF=-435.373349\\@

 Total job time:  2.97s(wall), 13.95s(cpu) 
 Thu Mar 16 06:27:41 2017

        *************************************************************
        *                                                           *
        *  Thank you very much for using Q-Chem.  Have a nice day.  *
        *                                                           *
        *************************************************************


0 sent ACK to 0 
now end server 0 ... 
cleanup process ... done

Running Job 2 of 2 ddtraj1t37.inp
qchem ddtraj1t37.inp_4043.1 /scratch/qchem/qchem4043/ 1
/mnt/software/qchem/bin/mpi/mpirun_qchem -machinefile /mnt/software/qchem/bin/mpi/machines -np 1 /mnt/software/qchem/exe/qcprog.exe ddtraj1t37.inp_4043.1 /scratch/qchem/qchem4043/

Process 0 of 1 is on tp-linux1 - thread support 0
initial socket setup ...start
initial socket setup ...done 
now start server 0 ... 

cmd = ssh tp-linux1 /mnt/software/qchem/bin/get_hostid 1102629956 > /scratch/qchem/qchem4043/lic.dat
                  Welcome to Q-Chem
     A Quantum Leap Into The Future Of Chemistry


 Q-Chem 4.3, Q-Chem, Inc., Pleasanton, CA (2015)

 Y. Shao,  Z. Gan,  E. Epifanovsky,  A. T. B. Gilbert,  M. Wormit,  
 J. Kussmann,  A. W. Lange,  A. Behn,  J. Deng,  X. Feng,  D. Ghosh,  
 M. Goldey,  P. R. Horn,  L. D. Jacobson,  I. Kaliman,  R. Z. Khaliullin,  
 T. Kus,  A. Landau,  J. Liu,  E. I. Proynov,  Y. M. Rhee,  R. M. Richard,  
 M. A. Rohrdanz,  R. P. Steele,  E. J. Sundstrom,  H. L. Woodcock III,  
 P. M. Zimmerman,  D. Zuev,  B. Albrecht,  E. Alguire,  B. Austin,  
 S. A. Baeppler,  G. J. O. Beran,  Y. A. Bernard,  E. Berquist,  
 K. Brandhorst,  K. B. Bravaya,  S. T. Brown,  D. Casanova,  C.-M. Chang,  
 Y. Chen,  S. H. Chien,  K. D. Closser,  D. L. Crittenden,  M. Diedenhofen,  
 R. A. DiStasio Jr.,  H. Do,  A. D. Dutoi,  R. G. Edgar,  P.-T. Fang,  
 S. Fatehi,  Q. Feng,  L. Fusti-Molnar,  A. Ghysels,  
 A. Golubeva-Zadorozhnaya,  J. Gomes,  A. Gunina,  M. W. D. Hanson-Heine,  
 P. H. P. Harbach,  A. W. Hauser,  E. G. Hohenstein,  Z. C. Holden,  K. Hui,  
 T.-C. Jagau,  H. Ji,  B. Kaduk,  K. Khistyaev,  Jaehoon Kim,  Jihan Kim,  
 R. A. King,  P. Klunzinger,  D. Kosenkov,  T. Kowalczyk,  C. M. Krauter,  
 K. U. Lao,  A. Laurent,  K. V. Lawler,  S. Lehtola,  S. V. Levchenko,  
 C. Y. Lin,  Y.-S. Lin,  F. Liu,  E. Livshits,  R. C. Lochan,  A. Luenser,  
 P. Manohar,  S. F. Manzer,  S.-P. Mao,  N. Mardirossian,  A. V. Marenich,  
 L. A. Martinez-Martinez,  S. A. Maurer,  N. J. Mayhall,  K. Nanda,  
 C. M. Oana,  R. Olivares-Amaya,  D. P. O'Neill,  J. A. Parkhill,  
 T. M. Perrine,  R. Peverati,  P. A. Pieniazek,  F. Plasser,  A. Prociuk,  
 D. R. Rehn,  E. Rosta,  N. J. Russ,  N. Sergueev,  S. M. Sharada,  
 S. Sharma,  D. W. Small,  A. Sodt,  T. Stauch,  T. Stein,  D. Stuck,  
 Y.-C. Su,  A. J. W. Thom,  T. Tsuchimochi,  L. Vogt,  O. Vydrov,  T. Wang,  
 M. A. Watson,  J. Wenzel,  A. White,  C. F. Williams,  V. Vanovschi,  
 S. Yeganeh,  S. R. Yost,  Z.-Q. You,  I. Y. Zhang,  X. Zhang,  Y. Zhao,  
 B. R. Brooks,  G. K. L. Chan,  D. M. Chipman,  C. J. Cramer,  
 W. A. Goddard III,  M. S. Gordon,  W. J. Hehre,  A. Klamt,  
 H. F. Schaefer III,  M. W. Schmidt,  C. D. Sherrill,  D. G. Truhlar,  
 A. Warshel,  X. Xu,  A. Aspuru-Guzik,  R. Baer,  A. T. Bell,  N. A. Besley,  
 J.-D. Chai,  A. Dreuw,  B. D. Dunietz,  T. R. Furlani,  S. R. Gwaltney,  
 C.-P. Hsu,  Y. Jung,  J. Kong,  D. S. Lambrecht,  W. Liang,  C. Ochsenfeld,  
 V. A. Rassolov,  L. V. Slipchenko,  J. E. Subotnik,  T. Van Voorhis,  
 J. M. Herbert,  A. I. Krylov,  P. M. W. Gill,  M. Head-Gordon

 Contributors to earlier versions of Q-Chem not listed above: 
 R. D. Adamson,  J. Baker,  E. F. C. Byrd,  A. K. Chakraborty,  C.-L. Cheng,  
 H. Dachsel,  R. J. Doerksen,  G. Hawkins,  A. Heyden,  S. Hirata,  
 G. Kedziora,  F. J. Keil,  C. Kelley,  P. P. Korambath,  W. Kurlancheek,  
 A. M. Lee,  M. S. Lee,  D. Liotard,  I. Lotan,  P. E. Maslen,  N. Nair,  
 D. Neuhauser,  R. Olson,  B. Peters,  J. Ritchie,  N. E. Schultz,  
 N. Shenvi,  A. C. Simmonett,  K. S. Thanthiriwatte,  Q. Wu,  W. Zhang

 Please cite Q-Chem as follows:
 Y. Shao et al., Mol. Phys. 113, 184-215 (2015)
 DOI: 10.1080/00268976.2014.952696

 Q-Chem 4.3.0 for Intel X86 Linux

 Parts of Q-Chem use Armadillo 5.200.1 (Boston Tea Smuggler).
 http://arma.sourceforge.net/

 Q-Chem begins on Thu Mar 16 06:27:43 2017  

Host: 
0

     Scratch files written to /scratch/qchem/qchem4043//
 Nov1815 1189b_ 19540  19532 5443   
 Parallel job on  1  processors
Processing $rem in /mnt/software/qchem/config/preferences.
 MEM_TOTAL  2000 

Checking the input file for inconsistencies... 	...done.

--------------------------------------------------------------
User input:
--------------------------------------------------------------

$comment
job3 - cvs-adc(2) calculation
$end

$molecule
read
$end

$rem
mem_total 3000
mem_static 1500
sym_ignore true
scf_guess read
method cvs-adc(2)
basis 6-31G*
ee_singlets 20
cc_rest_occ 5                  !only excitations from the lowest N orbitals
unrestricted  true
max_scf_cycles 200
$end
--------------------------------------------------------------
 ----------------------------------------------------------------
             Standard Nuclear Orientation (Angstroms)
    I     Atom           X                Y                Z
 ----------------------------------------------------------------
    1      C      -0.5706880000     2.6784330000    -0.1152120000
    2      F       0.6882740000     2.5884470000    -0.1038570000
    3      F      -1.0472450000     3.4881110000     0.6864630000
    4      F      -1.4829360000     0.2977180000     0.8134090000
    5      F      -1.0347440000     2.8164190000    -1.3244010000
 ----------------------------------------------------------------
 Nuclear Repulsion Energy =   178.1736836240 hartrees
 There are       21 alpha and       21 beta electrons
 Requested basis set is 6-31G(d)
 There are 20 shells and 75 basis functions

 Total QAlloc Memory Limit   3000 MB
 Mega-Array Size      1467 MB
 MEM_STATIC part      1500 MB

                       Distance Matrix (Angstroms)
             C (  1)   F (  2)   F (  3)   F (  4)
   F (  2)  1.262225
   F (  3)  1.235058  2.108560
   F (  4)  2.713363  3.286787  3.222507
   F (  5)  1.302508  2.123791  2.120118  3.333911
 
 tim1(1): 
  3.999999999999997E-003
 tim1(2): 
  0.000000000000000E+000
 A cutoff of  1.0D-11 yielded    190 shell pairs
 There are      2902 function pairs
 
 -------------------------------------------------------
 OpenMP Integral Computing Module                       
 Release: version 1.0, May 2013, Q-Chem Inc. Pittsburgh 
 -------------------------------------------------------
 Integral Job Info:
 Integral job number is                      11
 Integral operator is                         1
 short-range coefficients                     0
 long-range coefficients              100000000
 Omega coefficients                           0
 if combine SR and LR in K                    0
 Integral screening is                        0
 Integral computing path is                   2
 max size of driver memory is            800000
 size of driver memory is                593474
 size of scratch memory is              2260544
 max col of scratch BK array               1296
 max len of scratch array in speh3          155
 max len of scratch index in speh4           18
 max int batch size is                      520
 min int batch size is                       52
 fixed nKL is                                52
 max L of basis functions is                  2
 order of int derivative is                   0
 number of shells is                         20
 number of basis is                          75
 number of cartesian basis is                75
 number of contracted shell pairs           190
 number of primitive shell pairs            957
 maxK2 (contraction) of shell pair           36
 max number of K2 of shell pair               1
 max number of CS2 of shell pair             32
 max number of PS2 of shell pair            192
 mem total for path MDJ                   18100
 -------------------------------------------------------
 Smallest overlap matrix eigenvalue = 3.29E-03

 Scale SEOQF with 1.000000e+00/1.000000e-01/1.000000e+00

 Standard Electronic Orientation quadrupole field applied
 Nucleus-field energy     =     0.0000000086 hartrees
 Guess MOs from SCF MO coefficient file
 Reading MOs from coefficient file
 Reading MOs from coefficient file
 An unrestricted Hartree-Fock SCF calculation will be
 performed using Pulay DIIS extrapolation
 SCF converges when DIIS error is below 1.0E-08
 using 8 threads for integral computing 
 ---------------------------------------
  Cycle       Energy         DIIS Error
 ---------------------------------------
    1    -435.3733497194      3.20E-06
    2    -435.3733497353      1.99E-06
    3    -435.3733497483      1.82E-06
    4    -435.3733497678      7.74E-07
    5    -435.3733497717      4.44E-07
    6    -435.3733497725      2.21E-07
    7    -435.3733497727      3.12E-08
    8    -435.3733497727      6.01E-09 Convergence criterion met
 ---------------------------------------
 <S^2> = 0.0000
 SCF time:  CPU 8.12 s  wall 2.10 s
 SCF   energy in the final basis set = -435.3733497727
 Total energy in the final basis set = -435.3733497727
================================================================================
|                                                                              |
|                                 A D C  M A N                                 |
|                                                                              |
 ------------------------------------------------------------------------------ 
|                                                                              |
| Components:                                                                  |
|                                                                              |
| - libvmm - 1.2-release                                                       |
|   Authors:                                                                   |
|   Evgeny Epifanovsky, Ilya Kaliman                                           |
|                                                                              |
| - libtensor - 2.4-trunk                                                      |
|   Authors:                                                                   |
|   Evgeny Epifanovsky, Michael Wormit, Dmitry Zuev, Sam Manzer                |
|                                                                              |
| - libwfa - 1.1-beta                                                          |
|   Authors:                                                                   |
|   Felix Plasser, Stefanie Baeppler, Benjamin Thomitzni, Michael Wormit       |
|                                                                              |
| - libadc - 1.0-beta                                                          |
|   Authors:                                                                   |
|   Michael Wormit, Philipp H. P. Harbach, Caroline Krauter, Dirk Rehn,        |
|   Matthias Schneider, Jan Wenzel                                             |
|                                                                              |
| - adcman - 2.4-beta                                                          |
|   Authors:                                                                   |
|   Michael Wormit, Philipp H. P. Harbach, Caroline Krauter, Dirk Rehn,        |
|   Jan Wenzel, Andreas Dreuw                                                  |
|                                                                              |
| Authors of earlier versions of ADCMAN:                                       |
| Andreas Dreuw, Jan Hendrik Starcke, Dirk Rehn, Michael Wormit                |
|                                                                              |
================================================================================

 
 Alpha MOs, Unrestricted
 -- Occupied --                  
-26.512 -26.502 -26.486 -26.125 -11.719  -1.911  -1.814  -1.781
  1 A     2 A     3 A     4 A     5 A     6 A     7 A     8 A                  
 -1.341  -1.092  -0.989  -0.982  -0.932  -0.839  -0.830  -0.808
  9 A    10 A    11 A    12 A    13 A    14 A    15 A    16 A                  
 -0.794  -0.780  -0.459  -0.459  -0.388
 17 A    18 A    19 A    20 A    21 A                                          
 -- Virtual --                   
 -0.053   0.317   0.342   0.366   0.594   0.610   0.633   0.659
 22 A    23 A    24 A    25 A    26 A    27 A    28 A    29 A                  
  1.210   1.220   1.234   1.280   1.282   1.309   1.503   1.508
 30 A    31 A    32 A    33 A    34 A    35 A    36 A    37 A                  
  1.515   1.522   1.533   1.538   1.633   1.633   1.658   1.843
 38 A    39 A    40 A    41 A    42 A    43 A    44 A    45 A                  
  1.852   1.859   1.973   1.983   2.002   2.045   2.051   2.057
 46 A    47 A    48 A    49 A    50 A    51 A    52 A    53 A                  
  2.207   2.215   2.242   2.288   2.310   2.310   2.336   2.339
 54 A    55 A    56 A    57 A    58 A    59 A    60 A    61 A                  
  2.385   2.669   2.740   2.798   3.036   3.059   3.316   3.336
 62 A    63 A    64 A    65 A    66 A    67 A    68 A    69 A                  
  3.381   4.023   4.491   4.577   4.664   4.997
 70 A    71 A    72 A    73 A    74 A    75 A                                  
 
 Beta MOs, Unrestricted
 -- Occupied --                  
-26.512 -26.502 -26.486 -26.125 -11.719  -1.911  -1.814  -1.781
  1 A     2 A     3 A     4 A     5 A     6 A     7 A     8 A                  
 -1.341  -1.092  -0.989  -0.982  -0.932  -0.839  -0.830  -0.808
  9 A    10 A    11 A    12 A    13 A    14 A    15 A    16 A                  
 -0.794  -0.780  -0.459  -0.459  -0.388
 17 A    18 A    19 A    20 A    21 A                                          
 -- Virtual --                   
 -0.053   0.317   0.342   0.366   0.594   0.610   0.633   0.659
 22 A    23 A    24 A    25 A    26 A    27 A    28 A    29 A                  
  1.210   1.220   1.234   1.280   1.282   1.309   1.503   1.508
 30 A    31 A    32 A    33 A    34 A    35 A    36 A    37 A                  
  1.515   1.522   1.533   1.538   1.633   1.633   1.658   1.843
 38 A    39 A    40 A    41 A    42 A    43 A    44 A    45 A                  
  1.852   1.859   1.973   1.983   2.002   2.045   2.051   2.057
 46 A    47 A    48 A    49 A    50 A    51 A    52 A    53 A                  
  2.207   2.215   2.242   2.288   2.310   2.310   2.336   2.339
 54 A    55 A    56 A    57 A    58 A    59 A    60 A    61 A                  
  2.385   2.669   2.740   2.798   3.036   3.059   3.316   3.336
 62 A    63 A    64 A    65 A    66 A    67 A    68 A    69 A                  
  3.381   4.023   4.491   4.577   4.664   4.997
 70 A    71 A    72 A    73 A    74 A    75 A                                  
 

--------------------------------------------------------------------------------
                                   HF Summary                                   
--------------------------------------------------------------------------------
  Energy:                                                 -435.3733497727 a.u.
  Dip. moment [a.u.]:                  [ -56.370493,  184.132164,    0.792480]
  Total dipole [Debye]:                                             489.462292
  <r^2> [a.u.]:                        [ 183.792243, 1020.487976,  112.342878]
  Total <r^2> [a.u.]:                                              1316.623097
--------------------------------------------------------------------------------

--------------------------------------------------------------------------------
                                 MP(2) Summary                                  
--------------------------------------------------------------------------------
  Energy contribution:                                      -0.8506608462 a.u.
  Total energy:                                           -436.2240106189 a.u.
  Dip. moment [a.u.]:                  [ -55.885793,  185.385652,    0.295356]
  Total dipole [Debye]:                                             492.149092
  <r^2> [a.u.]:                        [ 181.830741, 1026.489507,  111.577561]
  Total <r^2> [a.u.]:                                              1319.897809
--------------------------------------------------------------------------------
  Starting Davidson ... 
--------------------------------------------------------------------------------
   It NVec Conv  Avg. Norm  Max. Norm  Conv. states           Remark
--------------------------------------------------------------------------------
        20    0  2.056e-01  1.059e+00 10.9864 n n n n n n n n Guess.
    1   40    0  7.919e-02  1.072e+00 10.8109 n n n n n n n n 
    2   60    0  1.883e-02  2.807e-01 10.8086 n n n n n n n n 
    3   80    0  5.035e-03  5.822e-02 10.8085 n n n n n n n n 
    4  100    0  4.697e-03  6.252e-02 10.8085 n n n n n n n n 
    5   40    0  2.028e-03  2.792e-02 10.8085 n n n n n n n n Subspace collapsed.
    6   60    0  3.146e-03  4.763e-02 10.8085 n n n n n n n n 
    7   80    0  5.261e-03  7.439e-02 10.8085 n n n n n n n n 
    8  100    1  3.855e-03  5.866e-02 10.8085 y n n n n n n n 
    9   40    6  2.227e-03  3.609e-02 10.8085 y y n y y y n y Subspace collapsed.
   10   60    8  1.545e-03  2.701e-02 10.8085 y y y y y y y y 
   11   80    9  1.791e-03  3.355e-02 10.8085 y y y y y y y y 
   12  100   12  2.510e-03  4.688e-02 10.8085 y y y y y y y y 
   13   40   14  1.286e-03  2.416e-02 10.8085 y y y y y y y y Subspace collapsed.
   14   60   16  1.124e-03  2.069e-02 10.8085 y y y y y y y y 
   15   80   16  1.164e-03  2.034e-02 10.8085 y y y y y y y y 
   16  100   16  1.179e-03  1.755e-02 10.8085 y y y y y y y y 
   17   39   16  8.524e-04  1.540e-02 10.8085 y y y y y y y y Subspace collapsed.
   18   58   16  6.913e-04  1.284e-02 10.8085 y y y y y y y y 
   19   60   16  7.571e-04  1.425e-02 10.8085 y y y y y y y y 
   20   63   16  7.738e-04  1.459e-02 10.8085 y y y y y y y y 
   21   63   16  7.738e-04  1.459e-02 10.8085 y y y y y y y y 
   22   83   17  7.229e-04  1.388e-02 10.8085 y y y y y y y y 
   23   95   18  1.049e-03  2.001e-02 10.8085 y y y y y y y y 
   24  100   18  1.049e-03  2.003e-02 10.8085 y y y y y y y y 
   25   32   18  4.521e-04  8.467e-03 10.8085 y y y y y y y y Subspace collapsed.
   26   44   18  4.919e-04  9.134e-03 10.8085 y y y y y y y y 
   27   56   18  3.770e-04  6.194e-03 10.8085 y y y y y y y y 
   28   68   18  4.598e-04  7.382e-03 10.8085 y y y y y y y y 
   29   68   18  4.598e-04  7.382e-03 10.8085 y y y y y y y y 
   30   86   18  5.740e-04  1.060e-02 10.8085 y y y y y y y y 
   31   86   18  5.740e-04  1.060e-02 10.8085 y y y y y y y y 
   32   88   18  5.714e-04  1.055e-02 10.8085 y y y y y y y y 
   33   88   18  5.714e-04  1.055e-02 10.8085 y y y y y y y y 
   34   88   18  5.714e-04  1.055e-02 10.8085 y y y y y y y y 
   35   91   18  5.699e-04  1.052e-02 10.8085 y y y y y y y y 
   36   91   18  5.699e-04  1.052e-02 10.8085 y y y y y y y y 
   37   91   18  5.699e-04  1.052e-02 10.8085 y y y y y y y y 
   38  100   18  5.681e-04  1.047e-02 10.8085 y y y y y y y y 
   39   21   18  5.679e-04  1.047e-02 10.8085 y y y y y y y y Subspace collapsed.
   40   22   18  5.679e-04  1.047e-02 10.8085 y y y y y y y y 
   41   22   18  5.679e-04  1.047e-02 10.8085 y y y y y y y y 
   42   22   18  5.679e-04  1.047e-02 10.8085 y y y y y y y y 
   43   42   18  2.805e-04  5.051e-03 10.8085 y y y y y y y y 
   44   52   18  2.144e-04  3.977e-03 10.8085 y y y y y y y y 
   45   54   18  2.136e-04  3.961e-03 10.8085 y y y y y y y y 
   46   54   18  2.136e-04  3.961e-03 10.8085 y y y y y y y y 
   47   54   18  2.136e-04  3.961e-03 10.8085 y y y y y y y y 
   48   61   18  2.126e-04  3.943e-03 10.8085 y y y y y y y y 
   49   61   18  2.126e-04  3.943e-03 10.8085 y y y y y y y y 
   50   63   18  2.123e-04  3.941e-03 10.8085 y y y y y y y y 
   51   63   18  2.123e-04  3.941e-03 10.8085 y y y y y y y y 
   52   65   18  2.125e-04  3.939e-03 10.8085 y y y y y y y y 
   53   67   18  2.130e-04  3.952e-03 10.8085 y y y y y y y y 
   54   69   18  2.171e-04  4.033e-03 10.8085 y y y y y y y y 
   55   72   18  2.188e-04  4.065e-03 10.8085 y y y y y y y y 
   56   77   18  2.246e-04  4.171e-03 10.8085 y y y y y y y y 
   57   80   17  2.284e-04  4.251e-03 10.8085 n y y y y y y y 
   58   85   11  2.272e-04  4.225e-03 10.8085 n n y y y y n n 
   59  100    0  2.536e-04  4.663e-03 10.8085 n n n n n n n n 
--------------------------------------------------------------------------------
  Davidson Summary: 
 ------------------------------------------------------------
  State  0: excitation energy =  10.8085 a.u.   (not converged)
  State  1: excitation energy =  10.8766 a.u.   (not converged)
  State  2: excitation energy =  11.1096 a.u.   (not converged)
  State  3: excitation energy =  11.1502 a.u.   (not converged)
  State  4: excitation energy =  11.1763 a.u.   (not converged)
  State  5: excitation energy =  11.1859 a.u.   (not converged)
  State  6: excitation energy =  11.2251 a.u.   (not converged)
  State  7: excitation energy =  11.2473 a.u.   (not converged)
  State  8: excitation energy =  11.5132 a.u.   (not converged)
  State  9: excitation energy =  11.5328 a.u.   (not converged)
  State 10: excitation energy =  11.5364 a.u.   (not converged)
  State 11: excitation energy =  11.5430 a.u.   (not converged)
  State 12: excitation energy =  11.5508 a.u.   (not converged)
  State 13: excitation energy =  11.5568 a.u.   (not converged)
  State 14: excitation energy =  11.5639 a.u.   (not converged)
  State 15: excitation energy =  11.6059 a.u.   (not converged)
  State 16: excitation energy =  12.0172 a.u.   (not converged)
  State 17: excitation energy =  12.0202 a.u.   (not converged)
  State 18: excitation energy =  12.1757 a.u.   (not converged)
  State 19: excitation energy =  12.1806 a.u.   (not converged)
 ------------------------------------------------------------


--------------------------------------------------------------------------------
                             Excited State Summary
--------------------------------------------------------------------------------

  Excited state  1 (A)                                         [not converged]
  ----------------------------------------------------------------------------
  Term symbol:  2 (-) A                                     R^2 =  1.01592e-03

  Total energy:                                           -425.4154766768 a.u.
  Excitation energy:                                             294.115166 eV


  V1^2 = 0.9468, V2^2 = 0.0532

  Important amplitudes:
     core i     occ j      vir a      vir b          v   
    ------------------------------------------------------
     5 (A) A              22 (A) A                 0.6536
     5 (A) B              22 (A) B                -0.6536
    ------------------------------------------------------
  ----------------------------------------------------------------------------


  Excited state  2 (A)                                         [not converged]
  ----------------------------------------------------------------------------
  Term symbol:  3 (-) A                                     R^2 =  1.71541e-04

  Total energy:                                           -425.3474572530 a.u.
  Excitation energy:                                             295.966069 eV


  V1^2 = 0.9377, V2^2 = 0.0623

  Important amplitudes:
     core i     occ j      vir a      vir b          v   
    ------------------------------------------------------
     5 (A) A              22 (A) A                 0.6620
     5 (A) B              22 (A) B                 0.6620
    ------------------------------------------------------
  ----------------------------------------------------------------------------


  Excited state  3 (A)                                         [not converged]
  ----------------------------------------------------------------------------
  Term symbol:  4 (-) A                                     R^2 =  4.40722e-05

  Total energy:                                           -425.1144153583 a.u.
  Excitation energy:                                             302.307462 eV


  V1^2 = 0.9454, V2^2 = 0.0546

  Important amplitudes:
     core i     occ j      vir a      vir b          v   
    ------------------------------------------------------
     5 (A) B              24 (A) B                 0.4389
     5 (A) A              24 (A) A                -0.4389
    ------------------------------------------------------
  ----------------------------------------------------------------------------


  Excited state  4 (A)                                         [not converged]
  ----------------------------------------------------------------------------
  Term symbol:  5 (-) A                                     R^2 =  2.57146e-05

  Total energy:                                           -425.0738194356 a.u.
  Excitation energy:                                             303.412133 eV


  V1^2 = 0.9386, V2^2 = 0.0614

  Important amplitudes:
     core i     occ j      vir a      vir b          v   
    ------------------------------------------------------
     5 (A) A              25 (A) A                 0.3539
     5 (A) B              25 (A) B                -0.3539
    ------------------------------------------------------
  ----------------------------------------------------------------------------


  Excited state  5 (A)                                         [not converged]
  ----------------------------------------------------------------------------
  Term symbol:  6 (-) A                                     R^2 =  3.90327e-05

  Total energy:                                           -425.0476953330 a.u.
  Excitation energy:                                             304.123006 eV


  V1^2 = 0.9350, V2^2 = 0.0650

  Important amplitudes:
     core i     occ j      vir a      vir b          v   
    ------------------------------------------------------
     5 (A) B              25 (A) B                 0.4082
     5 (A) A              25 (A) A                -0.4082
    ------------------------------------------------------
  ----------------------------------------------------------------------------


  Excited state  6 (A)                                         [not converged]
  ----------------------------------------------------------------------------
  Term symbol:  7 (-) A                                     R^2 =  1.86136e-05

  Total energy:                                           -425.0380662571 a.u.
  Excitation energy:                                             304.385026 eV


  V1^2 = 0.9360, V2^2 = 0.0640

  Important amplitudes:
     core i     occ j      vir a      vir b          v   
    ------------------------------------------------------
     5 (A) A              24 (A) A                 0.4743
     5 (A) B              24 (A) B                 0.4743
    ------------------------------------------------------
  ----------------------------------------------------------------------------


  Excited state  7 (A)                                         [not converged]
  ----------------------------------------------------------------------------
  Term symbol:  8 (-) A                                     R^2 =  1.48421e-04

  Total energy:                                           -424.9989162321 a.u.
  Excitation energy:                                             305.450353 eV


  V1^2 = 0.9248, V2^2 = 0.0752

  Important amplitudes:
     core i     occ j      vir a      vir b          v   
    ------------------------------------------------------
     5 (A) B              23 (A) B                 0.3732
     5 (A) A              23 (A) A                 0.3732
    ------------------------------------------------------
  ----------------------------------------------------------------------------


  Excited state  8 (A)                                         [not converged]
  ----------------------------------------------------------------------------
  Term symbol:  9 (-) A                                     R^2 =  1.33839e-04

  Total energy:                                           -424.9766772338 a.u.
  Excitation energy:                                             306.055507 eV


  V1^2 = 0.9222, V2^2 = 0.0778

  Important amplitudes:
     core i     occ j      vir a      vir b          v   
    ------------------------------------------------------
     5 (A) A              25 (A) A                 0.4561
     5 (A) B              25 (A) B                 0.4561
    ------------------------------------------------------
  ----------------------------------------------------------------------------


  Excited state  9 (A)                                         [not converged]
  ----------------------------------------------------------------------------
  Term symbol:  10 (-) A                                    R^2 =  2.43207e-05

  Total energy:                                           -424.7108324295 a.u.
  Excitation energy:                                             313.289512 eV


  V1^2 = 0.8804, V2^2 = 0.1196

  Important amplitudes:
     core i     occ j      vir a      vir b          v   
    ------------------------------------------------------
     5 (A) B              27 (A) B                 0.4249
     5 (A) A              27 (A) A                -0.4249
    ------------------------------------------------------
  ----------------------------------------------------------------------------


  Excited state 10 (A)                                         [not converged]
  ----------------------------------------------------------------------------
  Term symbol:  11 (-) A                                    R^2 =  1.93292e-05

  Total energy:                                           -424.6912362419 a.u.
  Excitation energy:                                             313.822751 eV


  V1^2 = 0.8758, V2^2 = 0.1242

  Important amplitudes:
     core i     occ j      vir a      vir b          v   
    ------------------------------------------------------
     5 (A) A              26 (A) A                 0.4517
     5 (A) B              26 (A) B                -0.4517
    ------------------------------------------------------
  ----------------------------------------------------------------------------


  Excited state 11 (A)                                         [not converged]
  ----------------------------------------------------------------------------
  Term symbol:  12 (-) A                                    R^2 =  3.51856e-05

  Total energy:                                           -424.6876182485 a.u.
  Excitation energy:                                             313.921202 eV


  V1^2 = 0.8765, V2^2 = 0.1235

  Important amplitudes:
     core i     occ j      vir a      vir b          v   
    ------------------------------------------------------
     5 (A) B              28 (A) B                 0.4815
     5 (A) A              28 (A) A                -0.4815
    ------------------------------------------------------
  ----------------------------------------------------------------------------


  Excited state 12 (A)                                         [not converged]
  ----------------------------------------------------------------------------
  Term symbol:  13 (-) A                                    R^2 =  2.18992e-05

  Total energy:                                           -424.6809981184 a.u.
  Excitation energy:                                             314.101345 eV


  V1^2 = 0.8808, V2^2 = 0.1192

  Important amplitudes:
     core i     occ j      vir a      vir b          v   
    ------------------------------------------------------
     5 (A) A              27 (A) A                -0.5012
     5 (A) B              27 (A) B                -0.5012
    ------------------------------------------------------
  ----------------------------------------------------------------------------


  Excited state 13 (A)                                         [not converged]
  ----------------------------------------------------------------------------
  Term symbol:  14 (-) A                                    R^2 =  2.16348e-05

  Total energy:                                           -424.6731791234 a.u.
  Excitation energy:                                             314.314110 eV


  V1^2 = 0.8791, V2^2 = 0.1209

  Important amplitudes:
     core i     occ j      vir a      vir b          v   
    ------------------------------------------------------
     5 (A) B              26 (A) B                -0.5133
     5 (A) A              26 (A) A                -0.5133
    ------------------------------------------------------
  ----------------------------------------------------------------------------


  Excited state 14 (A)                                         [not converged]
  ----------------------------------------------------------------------------
  Term symbol:  15 (-) A                                    R^2 =  1.24653e-05

  Total energy:                                           -424.6671711464 a.u.
  Excitation energy:                                             314.477596 eV


  V1^2 = 0.8812, V2^2 = 0.1188

  Important amplitudes:
     core i     occ j      vir a      vir b          v   
    ------------------------------------------------------
     5 (A) A              28 (A) A                -0.5302
     5 (A) B              28 (A) B                -0.5302
    ------------------------------------------------------
  ----------------------------------------------------------------------------


  Excited state 15 (A)                                         [not converged]
  ----------------------------------------------------------------------------
  Term symbol:  16 (-) A                                    R^2 =  1.27239e-04

  Total energy:                                           -424.6601128270 a.u.
  Excitation energy:                                             314.669662 eV


  V1^2 = 0.8607, V2^2 = 0.1393

  Important amplitudes:
     core i     occ j      vir a      vir b          v   
    ------------------------------------------------------
     5 (A) B              29 (A) B                -0.5902
     5 (A) A              29 (A) A                 0.5902
    ------------------------------------------------------
  ----------------------------------------------------------------------------


  Excited state 16 (A)                                         [not converged]
  ----------------------------------------------------------------------------
  Term symbol:  17 (-) A                                    R^2 =  2.20842e-05

  Total energy:                                           -424.6181453682 a.u.
  Excitation energy:                                             315.811655 eV


  V1^2 = 0.8657, V2^2 = 0.1343

  Important amplitudes:
     core i     occ j      vir a      vir b          v   
    ------------------------------------------------------
     5 (A) B              29 (A) B                 0.6325
     5 (A) A              29 (A) A                 0.6325
    ------------------------------------------------------
  ----------------------------------------------------------------------------


  Excited state 17 (A)                                         [not converged]
  ----------------------------------------------------------------------------
  Term symbol:  18 (-) A                                    R^2 =  1.69052e-04

  Total energy:                                           -424.2068140694 a.u.
  Excitation energy:                                             327.004549 eV


  V1^2 = 0.0350, V2^2 = 0.9650

  Important amplitudes:
     core i     occ j      vir a      vir b          v   
    ------------------------------------------------------
     5 (A) B   21 (A) A   22 (A) A   22 (A) B      0.4888
     5 (A) A   21 (A) B   22 (A) A   22 (A) B      0.4888
    ------------------------------------------------------
  ----------------------------------------------------------------------------


  Excited state 18 (A)                                         [not converged]
  ----------------------------------------------------------------------------
  Term symbol:  19 (-) A                                    R^2 =  8.88480e-05

  Total energy:                                           -424.2038491314 a.u.
  Excitation energy:                                             327.085229 eV


  V1^2 = 0.0389, V2^2 = 0.9611

  Important amplitudes:
     core i     occ j      vir a      vir b          v   
    ------------------------------------------------------
     5 (A) A   21 (A) B   22 (A) A   22 (A) B     -0.4874
     5 (A) B   21 (A) A   22 (A) A   22 (A) B      0.4874
    ------------------------------------------------------
  ----------------------------------------------------------------------------


  Excited state 19 (A)                                         [not converged]
  ----------------------------------------------------------------------------
  Term symbol:  20 (-) A                                    R^2 =  4.66293e-03

  Total energy:                                           -424.0483491751 a.u.
  Excitation energy:                                             331.316598 eV


  V1^2 = 0.8532, V2^2 = 0.1468

  Important amplitudes:
     core i     occ j      vir a      vir b          v   
    ------------------------------------------------------
     5 (A) B              30 (A) B                 0.5854
     5 (A) A              30 (A) A                -0.5848
    ------------------------------------------------------
  ----------------------------------------------------------------------------


  Excited state 20 (A)                                         [not converged]
  ----------------------------------------------------------------------------
  Term symbol:  21 (-) A                                    R^2 =  1.67939e-03

  Total energy:                                           -424.0434273652 a.u.
  Excitation energy:                                             331.450527 eV


  V1^2 = 0.8526, V2^2 = 0.1474

  Important amplitudes:
     core i     occ j      vir a      vir b          v   
    ------------------------------------------------------
     5 (A) B              30 (A) B                -0.5772
     5 (A) A              30 (A) A                -0.5769
    ------------------------------------------------------
  ----------------------------------------------------------------------------


--------------------------------------------------------------------------------
  Time of ADC calculation:  CPU 3585.22 s  wall 2205.93 s
================================================================================
 
 --------------------------------------------------------------
 
                    Orbital Energies (a.u.)
 --------------------------------------------------------------
 
 Alpha MOs
 -- Occupied --
-26.512 -26.502 -26.486 -26.125 -11.719  -1.911  -1.814  -1.781
 -1.341  -1.092  -0.989  -0.982  -0.932  -0.839  -0.830  -0.808
 -0.794  -0.780  -0.459  -0.459  -0.388
 -- Virtual --
 -0.053   0.317   0.342   0.366   0.594   0.610   0.633   0.659
  1.210   1.220   1.234   1.280   1.282   1.309   1.503   1.508
  1.515   1.522   1.533   1.538   1.633   1.633   1.658   1.843
  1.852   1.859   1.973   1.983   2.002   2.045   2.051   2.057
  2.207   2.215   2.242   2.288   2.310   2.310   2.336   2.339
  2.385   2.669   2.740   2.798   3.036   3.059   3.316   3.336
  3.381   4.023   4.491   4.577   4.664   4.997
 
 Beta MOs
 -- Occupied --
-26.512 -26.502 -26.486 -26.125 -11.719  -1.911  -1.814  -1.781
 -1.341  -1.092  -0.989  -0.982  -0.932  -0.839  -0.830  -0.808
 -0.794  -0.780  -0.459  -0.459  -0.388
 -- Virtual --
 -0.053   0.317   0.342   0.366   0.594   0.610   0.633   0.659
  1.210   1.220   1.234   1.280   1.282   1.309   1.503   1.508
  1.515   1.522   1.533   1.538   1.633   1.633   1.658   1.843
  1.852   1.859   1.973   1.983   2.002   2.045   2.051   2.057
  2.207   2.215   2.242   2.288   2.310   2.310   2.336   2.339
  2.385   2.669   2.740   2.798   3.036   3.059   3.316   3.336
  3.381   4.023   4.491   4.577   4.664   4.997
 --------------------------------------------------------------
 
          Ground-State Mulliken Net Atomic Charges

     Atom                 Charge (a.u.)    Spin (a.u.)
  --------------------------------------------------------
      1 C                     1.130256       0.000000
      2 F                    -0.178853       0.000000
      3 F                    -0.145990       0.000000
      4 F                    -0.584536       0.000000
      5 F                    -0.220876       0.000000
  --------------------------------------------------------
  Sum of atomic charges =     0.000000
  Sum of spin   charges =     0.000000

 -----------------------------------------------------------------
                    Cartesian Multipole Moments
 -----------------------------------------------------------------
    Charge (ESU x 10^10)
                 0.0000
    Dipole Moment (Debye)
         X       2.4784      Y       6.4762      Z      -2.2388
       Tot       7.2867
    Quadrupole Moments (Debye-Ang)
        XX     -28.5830     XY      -2.7215     YY      -3.5124
        XZ       3.0843     YZ      -0.9006     ZZ     -25.4587
    Octopole Moments (Debye-Ang^2)
       XXX      58.9476    XXY     -53.9874    XYY       5.9964
       YYY    -106.4149    XXZ      -4.8296    XYZ       0.8498
       YYZ      -0.7323    XZZ      19.5455    YZZ     -55.2366
       ZZZ      -2.2302
    Hexadecapole Moments (Debye-Ang^3)
      XXXX    -175.0040   XXXY      95.8292   XXYY    -177.4932
      XYYY      63.5696   YYYY    -777.7874   XXXZ      16.5663
      XXYZ       6.2169   XYYZ       1.8921   YYYZ      21.7688
      XXZZ     -46.7462   XYZZ      32.4485   YYZZ    -172.7021
      XZZZ      12.1756   YZZZ      22.6803   ZZZZ     -95.1534
 -----------------------------------------------------------------
Archival summary:
1\1\tp-linux1\SP\HF\6-31G*\41\thomas\ThuMar1607:04:332017ThuMar1607:04:332017\0\\#,HF,6-31G*,\\0,1\C\F,1,1.23506\F,1,1.26222,2,115.199\F,1,1.30251,2,113.308,3,130.503,0\F,1,2.71336,2,102.905,3,-114.431,0\\HF=-435.37335\\@

 Total job time:  2210.07s(wall), 3597.97s(cpu) 
 Thu Mar 16 07:04:33 2017

        *************************************************************
        *                                                           *
        *  Thank you very much for using Q-Chem.  Have a nice day.  *
        *                                                           *
        *************************************************************


0 sent ACK to 0 
now end server 0 ... 
cleanup process ... done
