
Running Job 1 of 2 ddtraj5t18.inp
qchem ddtraj5t18.inp_2598.0 /scratch/qchem/qchem2598/ 1
/mnt/software/qchem/bin/mpi/mpirun_qchem -machinefile /mnt/software/qchem/bin/mpi/machines -np 1 /mnt/software/qchem/exe/qcprog.exe ddtraj5t18.inp_2598.0 /scratch/qchem/qchem2598/

Process 0 of 1 is on tp-linux1 - thread support 0
initial socket setup ...start
initial socket setup ...done 
now start server 0 ... 

cmd = ssh tp-linux1 /mnt/software/qchem/bin/get_hostid 1118081044 > /scratch/qchem/qchem2598/lic.dat
                  Welcome to Q-Chem
     A Quantum Leap Into The Future Of Chemistry


 Q-Chem 4.3, Q-Chem, Inc., Pleasanton, CA (2015)

 Y. Shao,  Z. Gan,  E. Epifanovsky,  A. T. B. Gilbert,  M. Wormit,  
 J. Kussmann,  A. W. Lange,  A. Behn,  J. Deng,  X. Feng,  D. Ghosh,  
 M. Goldey,  P. R. Horn,  L. D. Jacobson,  I. Kaliman,  R. Z. Khaliullin,  
 T. Kus,  A. Landau,  J. Liu,  E. I. Proynov,  Y. M. Rhee,  R. M. Richard,  
 M. A. Rohrdanz,  R. P. Steele,  E. J. Sundstrom,  H. L. Woodcock III,  
 P. M. Zimmerman,  D. Zuev,  B. Albrecht,  E. Alguire,  B. Austin,  
 S. A. Baeppler,  G. J. O. Beran,  Y. A. Bernard,  E. Berquist,  
 K. Brandhorst,  K. B. Bravaya,  S. T. Brown,  D. Casanova,  C.-M. Chang,  
 Y. Chen,  S. H. Chien,  K. D. Closser,  D. L. Crittenden,  M. Diedenhofen,  
 R. A. DiStasio Jr.,  H. Do,  A. D. Dutoi,  R. G. Edgar,  P.-T. Fang,  
 S. Fatehi,  Q. Feng,  L. Fusti-Molnar,  A. Ghysels,  
 A. Golubeva-Zadorozhnaya,  J. Gomes,  A. Gunina,  M. W. D. Hanson-Heine,  
 P. H. P. Harbach,  A. W. Hauser,  E. G. Hohenstein,  Z. C. Holden,  K. Hui,  
 T.-C. Jagau,  H. Ji,  B. Kaduk,  K. Khistyaev,  Jaehoon Kim,  Jihan Kim,  
 R. A. King,  P. Klunzinger,  D. Kosenkov,  T. Kowalczyk,  C. M. Krauter,  
 K. U. Lao,  A. Laurent,  K. V. Lawler,  S. Lehtola,  S. V. Levchenko,  
 C. Y. Lin,  Y.-S. Lin,  F. Liu,  E. Livshits,  R. C. Lochan,  A. Luenser,  
 P. Manohar,  S. F. Manzer,  S.-P. Mao,  N. Mardirossian,  A. V. Marenich,  
 L. A. Martinez-Martinez,  S. A. Maurer,  N. J. Mayhall,  K. Nanda,  
 C. M. Oana,  R. Olivares-Amaya,  D. P. O'Neill,  J. A. Parkhill,  
 T. M. Perrine,  R. Peverati,  P. A. Pieniazek,  F. Plasser,  A. Prociuk,  
 D. R. Rehn,  E. Rosta,  N. J. Russ,  N. Sergueev,  S. M. Sharada,  
 S. Sharma,  D. W. Small,  A. Sodt,  T. Stauch,  T. Stein,  D. Stuck,  
 Y.-C. Su,  A. J. W. Thom,  T. Tsuchimochi,  L. Vogt,  O. Vydrov,  T. Wang,  
 M. A. Watson,  J. Wenzel,  A. White,  C. F. Williams,  V. Vanovschi,  
 S. Yeganeh,  S. R. Yost,  Z.-Q. You,  I. Y. Zhang,  X. Zhang,  Y. Zhao,  
 B. R. Brooks,  G. K. L. Chan,  D. M. Chipman,  C. J. Cramer,  
 W. A. Goddard III,  M. S. Gordon,  W. J. Hehre,  A. Klamt,  
 H. F. Schaefer III,  M. W. Schmidt,  C. D. Sherrill,  D. G. Truhlar,  
 A. Warshel,  X. Xu,  A. Aspuru-Guzik,  R. Baer,  A. T. Bell,  N. A. Besley,  
 J.-D. Chai,  A. Dreuw,  B. D. Dunietz,  T. R. Furlani,  S. R. Gwaltney,  
 C.-P. Hsu,  Y. Jung,  J. Kong,  D. S. Lambrecht,  W. Liang,  C. Ochsenfeld,  
 V. A. Rassolov,  L. V. Slipchenko,  J. E. Subotnik,  T. Van Voorhis,  
 J. M. Herbert,  A. I. Krylov,  P. M. W. Gill,  M. Head-Gordon

 Contributors to earlier versions of Q-Chem not listed above: 
 R. D. Adamson,  J. Baker,  E. F. C. Byrd,  A. K. Chakraborty,  C.-L. Cheng,  
 H. Dachsel,  R. J. Doerksen,  G. Hawkins,  A. Heyden,  S. Hirata,  
 G. Kedziora,  F. J. Keil,  C. Kelley,  P. P. Korambath,  W. Kurlancheek,  
 A. M. Lee,  M. S. Lee,  D. Liotard,  I. Lotan,  P. E. Maslen,  N. Nair,  
 D. Neuhauser,  R. Olson,  B. Peters,  J. Ritchie,  N. E. Schultz,  
 N. Shenvi,  A. C. Simmonett,  K. S. Thanthiriwatte,  Q. Wu,  W. Zhang

 Please cite Q-Chem as follows:
 Y. Shao et al., Mol. Phys. 113, 184-215 (2015)
 DOI: 10.1080/00268976.2014.952696

 Q-Chem 4.3.0 for Intel X86 Linux

 Parts of Q-Chem use Armadillo 5.200.1 (Boston Tea Smuggler).
 http://arma.sourceforge.net/

 Q-Chem begins on Mon Mar 20 18:20:36 2017  

Host: 
0

     Scratch files written to /scratch/qchem/qchem2598//
 Nov1815 1189b_ 19540  19532 5443   
 Parallel job on  1  processors
Processing $rem in /mnt/software/qchem/config/preferences.
 MEM_TOTAL  2000 

Checking the input file for inconsistencies... 	...done.

--------------------------------------------------------------
User input:
--------------------------------------------------------------
$comment
XAS calculation for the 2b valence excited for water using cvs-adc(2)-x + 6-311+G* basis set
job 1 - determination of HF orbitals
$end

$molecule
0 1
6  -0.4515  2.945264  -0.235183
9  0.494361  2.256243  0.053685
9  -1.158485  3.395183  0.800628
9  -1.118635  0.804235  0.501941
9  -1.176168  2.568634  -1.203543
$end

$rem
jobtype      sp
sym_ignore true
exchange     hf
basis        6-31G*
unrestricted true
$end

--------------------------------------------------------------
 ----------------------------------------------------------------
             Standard Nuclear Orientation (Angstroms)
    I     Atom           X                Y                Z
 ----------------------------------------------------------------
    1      C      -0.4515000000     2.9452640000    -0.2351830000
    2      F       0.4943610000     2.2562430000     0.0536850000
    3      F      -1.1584850000     3.3951830000     0.8006280000
    4      F      -1.1186350000     0.8042350000     0.5019410000
    5      F      -1.1761680000     2.5686340000    -1.2035430000
 ----------------------------------------------------------------
 Nuclear Repulsion Energy =   193.1156404286 hartrees
 There are       21 alpha and       21 beta electrons
 Requested basis set is 6-31G(d)
 There are 20 shells and 75 basis functions

 Total QAlloc Memory Limit   2000 MB
 Mega-Array Size        61 MB
 MEM_STATIC part        62 MB

                       Distance Matrix (Angstroms)
             C (  1)   F (  2)   F (  3)   F (  4)
   F (  2)  1.205341
   F (  3)  1.332351  2.141730
   F (  4)  2.360599  2.216081  2.608412
   F (  5)  1.266773  2.113972  2.167994  2.454606
 
 tim1(1): 
  0.000000000000000E+000
 tim1(2): 
  0.000000000000000E+000
 A cutoff of  1.0D-08 yielded    194 shell pairs
 There are      2942 function pairs
 
 -------------------------------------------------------
 OpenMP Integral Computing Module                       
 Release: version 1.0, May 2013, Q-Chem Inc. Pittsburgh 
 -------------------------------------------------------
 Integral Job Info:
 Integral job number is                      11
 Integral operator is                         1
 short-range coefficients                     0
 long-range coefficients              100000000
 Omega coefficients                           0
 if combine SR and LR in K                    0
 Integral screening is                        0
 Integral computing path is                   2
 max size of driver memory is            800000
 size of driver memory is                593474
 size of scratch memory is              2260544
 max col of scratch BK array               1296
 max len of scratch array in speh3          155
 max len of scratch index in speh4           18
 max int batch size is                      520
 min int batch size is                       52
 fixed nKL is                                52
 max L of basis functions is                  2
 order of int derivative is                   0
 number of shells is                         20
 number of basis is                          75
 number of cartesian basis is                75
 number of contracted shell pairs           194
 number of primitive shell pairs            947
 maxK2 (contraction) of shell pair           36
 max number of K2 of shell pair               1
 max number of CS2 of shell pair             28
 max number of PS2 of shell pair            180
 mem total for path MDJ                   21832
 -------------------------------------------------------
 Smallest overlap matrix eigenvalue = 1.74E-03

 Scale SEOQF with 1.000000e+00/1.000000e-01/1.000000e+00

 Standard Electronic Orientation quadrupole field applied
 Nucleus-field energy     =     0.0000000101 hartrees
 Guess from superposition of atomic densities
 Warning:  Energy on first SCF cycle will be non-variational
 An unrestricted Hartree-Fock SCF calculation will be
 performed using Pulay DIIS extrapolation
 SCF converges when DIIS error is below 1.0E-05
 using 8 threads for integral computing 
 ---------------------------------------
  Cycle       Energy         DIIS Error
 ---------------------------------------
    1    -436.0701574721      8.34E-02
    2    -435.0577458629      2.21E-02
    3    -433.9572255952      4.08E-02
    4    -435.2678058258      1.17E-02
    5    -435.3090635343      7.06E-03
    6    -435.3350454972      2.49E-03
    7    -435.3388424201      7.76E-04
    8    -435.3394095661      1.36E-04
    9    -435.3394815016      6.65E-05
   10    -435.3395101254      4.91E-05
   11    -435.3395324624      2.90E-05
   12    -435.3395430014      6.80E-06 Convergence criterion met
 ---------------------------------------
 <S^2> = 0.0000
 SCF time:  CPU 11.44 s  wall 2.92 s
 SCF   energy in the final basis set = -435.3395430014
 Total energy in the final basis set = -435.3395430014
 
 --------------------------------------------------------------
 
                    Orbital Energies (a.u.)
 --------------------------------------------------------------
 
 Alpha MOs
 -- Occupied --
-26.537 -26.514 -26.493 -25.979 -11.735  -1.922  -1.824  -1.774
 -1.245  -1.097  -0.997  -0.988  -0.933  -0.837  -0.824  -0.810
 -0.792  -0.785  -0.350  -0.350  -0.340
 -- Virtual --
 -0.087   0.305   0.342   0.369   0.539   0.575   0.631   0.770
  1.202   1.215   1.232   1.269   1.288   1.402   1.476   1.505
  1.518   1.523   1.535   1.546   1.637   1.739   1.793   1.890
  1.899   1.972   1.976   1.986   2.003   2.041   2.051   2.146
  2.176   2.190   2.258   2.319   2.394   2.399   2.422   2.532
  2.667   2.714   2.809   2.905   3.043   3.108   3.329   3.360
  3.519   4.238   4.490   4.605   4.839   6.525
 
 Beta MOs
 -- Occupied --
-26.537 -26.514 -26.493 -25.979 -11.735  -1.922  -1.824  -1.774
 -1.245  -1.097  -0.997  -0.988  -0.933  -0.837  -0.824  -0.810
 -0.792  -0.785  -0.350  -0.350  -0.340
 -- Virtual --
 -0.087   0.305   0.342   0.369   0.539   0.575   0.631   0.770
  1.202   1.215   1.232   1.269   1.288   1.402   1.476   1.505
  1.518   1.523   1.535   1.546   1.637   1.739   1.793   1.890
  1.899   1.972   1.976   1.986   2.003   2.041   2.051   2.146
  2.176   2.190   2.258   2.319   2.394   2.399   2.422   2.532
  2.667   2.714   2.809   2.905   3.043   3.108   3.329   3.360
  3.519   4.238   4.490   4.605   4.839   6.525
 --------------------------------------------------------------
 
          Ground-State Mulliken Net Atomic Charges

     Atom                 Charge (a.u.)    Spin (a.u.)
  --------------------------------------------------------
      1 C                     1.233203       0.000000
      2 F                    -0.030568       0.000000
      3 F                    -0.207437       0.000000
      4 F                    -0.858791       0.000000
      5 F                    -0.136407       0.000000
  --------------------------------------------------------
  Sum of atomic charges =     0.000000
  Sum of spin   charges =     0.000000

 -----------------------------------------------------------------
                    Cartesian Multipole Moments
 -----------------------------------------------------------------
    Charge (ESU x 10^10)
                 0.0000
    Dipole Moment (Debye)
         X       3.2206      Y       8.4316      Z      -3.1906
       Tot       9.5731
    Quadrupole Moments (Debye-Ang)
        XX     -27.3591     XY       0.1251     YY       9.0315
        XZ       2.7534     YZ      -5.4796     ZZ     -23.7440
    Octopole Moments (Debye-Ang^2)
       XXX      54.1790    XXY     -56.2448    XYY       9.7582
       YYY     -57.8660    XXZ      -2.9772    XYZ       3.0504
       YYZ     -14.2672    XZZ      17.0122    YZZ     -53.4791
       ZZZ      -1.2562
    Hexadecapole Moments (Debye-Ang^3)
      XXXX    -144.0630   XXXY     114.1840   XXYY    -170.3362
      XYYY      88.1186   YYYY    -557.9187   XXXZ       4.4528
      XXYZ      -0.4222   XYYZ       4.9689   YYYZ     -39.0236
      XXZZ     -36.0686   XYZZ      36.7869   YYZZ    -157.4049
      XZZZ       1.7370   YZZZ       5.5038   ZZZZ     -78.0864
 -----------------------------------------------------------------
Archival summary:
1\1\tp-linux1\SP\HF\6-31G*\41\thomas\MonMar2018:20:392017MonMar2018:20:392017\0\\#,HF,6-31G*,\\0,1\F\C,1,1.20534\F,2,1.26677,1,117.526\F,2,1.33235,1,115.032,3,-136.899,0\F,1,2.21608,2,81.4805,3,63.7356,0\\HF=-435.339543\\@

 Total job time:  3.23s(wall), 13.15s(cpu) 
 Mon Mar 20 18:20:39 2017

        *************************************************************
        *                                                           *
        *  Thank you very much for using Q-Chem.  Have a nice day.  *
        *                                                           *
        *************************************************************


0 sent ACK to 0 
now end server 0 ... 
cleanup process ... done

Running Job 2 of 2 ddtraj5t18.inp
qchem ddtraj5t18.inp_2598.1 /scratch/qchem/qchem2598/ 1
/mnt/software/qchem/bin/mpi/mpirun_qchem -machinefile /mnt/software/qchem/bin/mpi/machines -np 1 /mnt/software/qchem/exe/qcprog.exe ddtraj5t18.inp_2598.1 /scratch/qchem/qchem2598/

Process 0 of 1 is on tp-linux1 - thread support 0
initial socket setup ...start
initial socket setup ...done 
now start server 0 ... 

cmd = ssh tp-linux1 /mnt/software/qchem/bin/get_hostid 665306108 > /scratch/qchem/qchem2598/lic.dat
                  Welcome to Q-Chem
     A Quantum Leap Into The Future Of Chemistry


 Q-Chem 4.3, Q-Chem, Inc., Pleasanton, CA (2015)

 Y. Shao,  Z. Gan,  E. Epifanovsky,  A. T. B. Gilbert,  M. Wormit,  
 J. Kussmann,  A. W. Lange,  A. Behn,  J. Deng,  X. Feng,  D. Ghosh,  
 M. Goldey,  P. R. Horn,  L. D. Jacobson,  I. Kaliman,  R. Z. Khaliullin,  
 T. Kus,  A. Landau,  J. Liu,  E. I. Proynov,  Y. M. Rhee,  R. M. Richard,  
 M. A. Rohrdanz,  R. P. Steele,  E. J. Sundstrom,  H. L. Woodcock III,  
 P. M. Zimmerman,  D. Zuev,  B. Albrecht,  E. Alguire,  B. Austin,  
 S. A. Baeppler,  G. J. O. Beran,  Y. A. Bernard,  E. Berquist,  
 K. Brandhorst,  K. B. Bravaya,  S. T. Brown,  D. Casanova,  C.-M. Chang,  
 Y. Chen,  S. H. Chien,  K. D. Closser,  D. L. Crittenden,  M. Diedenhofen,  
 R. A. DiStasio Jr.,  H. Do,  A. D. Dutoi,  R. G. Edgar,  P.-T. Fang,  
 S. Fatehi,  Q. Feng,  L. Fusti-Molnar,  A. Ghysels,  
 A. Golubeva-Zadorozhnaya,  J. Gomes,  A. Gunina,  M. W. D. Hanson-Heine,  
 P. H. P. Harbach,  A. W. Hauser,  E. G. Hohenstein,  Z. C. Holden,  K. Hui,  
 T.-C. Jagau,  H. Ji,  B. Kaduk,  K. Khistyaev,  Jaehoon Kim,  Jihan Kim,  
 R. A. King,  P. Klunzinger,  D. Kosenkov,  T. Kowalczyk,  C. M. Krauter,  
 K. U. Lao,  A. Laurent,  K. V. Lawler,  S. Lehtola,  S. V. Levchenko,  
 C. Y. Lin,  Y.-S. Lin,  F. Liu,  E. Livshits,  R. C. Lochan,  A. Luenser,  
 P. Manohar,  S. F. Manzer,  S.-P. Mao,  N. Mardirossian,  A. V. Marenich,  
 L. A. Martinez-Martinez,  S. A. Maurer,  N. J. Mayhall,  K. Nanda,  
 C. M. Oana,  R. Olivares-Amaya,  D. P. O'Neill,  J. A. Parkhill,  
 T. M. Perrine,  R. Peverati,  P. A. Pieniazek,  F. Plasser,  A. Prociuk,  
 D. R. Rehn,  E. Rosta,  N. J. Russ,  N. Sergueev,  S. M. Sharada,  
 S. Sharma,  D. W. Small,  A. Sodt,  T. Stauch,  T. Stein,  D. Stuck,  
 Y.-C. Su,  A. J. W. Thom,  T. Tsuchimochi,  L. Vogt,  O. Vydrov,  T. Wang,  
 M. A. Watson,  J. Wenzel,  A. White,  C. F. Williams,  V. Vanovschi,  
 S. Yeganeh,  S. R. Yost,  Z.-Q. You,  I. Y. Zhang,  X. Zhang,  Y. Zhao,  
 B. R. Brooks,  G. K. L. Chan,  D. M. Chipman,  C. J. Cramer,  
 W. A. Goddard III,  M. S. Gordon,  W. J. Hehre,  A. Klamt,  
 H. F. Schaefer III,  M. W. Schmidt,  C. D. Sherrill,  D. G. Truhlar,  
 A. Warshel,  X. Xu,  A. Aspuru-Guzik,  R. Baer,  A. T. Bell,  N. A. Besley,  
 J.-D. Chai,  A. Dreuw,  B. D. Dunietz,  T. R. Furlani,  S. R. Gwaltney,  
 C.-P. Hsu,  Y. Jung,  J. Kong,  D. S. Lambrecht,  W. Liang,  C. Ochsenfeld,  
 V. A. Rassolov,  L. V. Slipchenko,  J. E. Subotnik,  T. Van Voorhis,  
 J. M. Herbert,  A. I. Krylov,  P. M. W. Gill,  M. Head-Gordon

 Contributors to earlier versions of Q-Chem not listed above: 
 R. D. Adamson,  J. Baker,  E. F. C. Byrd,  A. K. Chakraborty,  C.-L. Cheng,  
 H. Dachsel,  R. J. Doerksen,  G. Hawkins,  A. Heyden,  S. Hirata,  
 G. Kedziora,  F. J. Keil,  C. Kelley,  P. P. Korambath,  W. Kurlancheek,  
 A. M. Lee,  M. S. Lee,  D. Liotard,  I. Lotan,  P. E. Maslen,  N. Nair,  
 D. Neuhauser,  R. Olson,  B. Peters,  J. Ritchie,  N. E. Schultz,  
 N. Shenvi,  A. C. Simmonett,  K. S. Thanthiriwatte,  Q. Wu,  W. Zhang

 Please cite Q-Chem as follows:
 Y. Shao et al., Mol. Phys. 113, 184-215 (2015)
 DOI: 10.1080/00268976.2014.952696

 Q-Chem 4.3.0 for Intel X86 Linux

 Parts of Q-Chem use Armadillo 5.200.1 (Boston Tea Smuggler).
 http://arma.sourceforge.net/

 Q-Chem begins on Mon Mar 20 18:20:42 2017  

Host: 
0

     Scratch files written to /scratch/qchem/qchem2598//
 Nov1815 1189b_ 19540  19532 5443   
 Parallel job on  1  processors
Processing $rem in /mnt/software/qchem/config/preferences.
 MEM_TOTAL  2000 

Checking the input file for inconsistencies... 	...done.

--------------------------------------------------------------
User input:
--------------------------------------------------------------

$comment
job3 - cvs-adc(2) calculation
$end

$molecule
read
$end

$rem
mem_total 3000
mem_static 1500
sym_ignore true
scf_guess read
method cvs-adc(2)
basis 6-31G*
ee_singlets 20
cc_rest_occ 5                  !only excitations from the lowest N orbitals
unrestricted  true
max_scf_cycles 200
$end
--------------------------------------------------------------
 ----------------------------------------------------------------
             Standard Nuclear Orientation (Angstroms)
    I     Atom           X                Y                Z
 ----------------------------------------------------------------
    1      C      -0.4515000000     2.9452640000    -0.2351830000
    2      F       0.4943610000     2.2562430000     0.0536850000
    3      F      -1.1584850000     3.3951830000     0.8006280000
    4      F      -1.1186350000     0.8042350000     0.5019410000
    5      F      -1.1761680000     2.5686340000    -1.2035430000
 ----------------------------------------------------------------
 Nuclear Repulsion Energy =   193.1156404286 hartrees
 There are       21 alpha and       21 beta electrons
 Requested basis set is 6-31G(d)
 There are 20 shells and 75 basis functions

 Total QAlloc Memory Limit   3000 MB
 Mega-Array Size      1467 MB
 MEM_STATIC part      1500 MB

                       Distance Matrix (Angstroms)
             C (  1)   F (  2)   F (  3)   F (  4)
   F (  2)  1.205341
   F (  3)  1.332351  2.141730
   F (  4)  2.360599  2.216081  2.608412
   F (  5)  1.266773  2.113972  2.167994  2.454606
 
 tim1(1): 
  0.000000000000000E+000
 tim1(2): 
  0.000000000000000E+000
 A cutoff of  1.0D-11 yielded    201 shell pairs
 There are      2970 function pairs
 
 -------------------------------------------------------
 OpenMP Integral Computing Module                       
 Release: version 1.0, May 2013, Q-Chem Inc. Pittsburgh 
 -------------------------------------------------------
 Integral Job Info:
 Integral job number is                      11
 Integral operator is                         1
 short-range coefficients                     0
 long-range coefficients              100000000
 Omega coefficients                           0
 if combine SR and LR in K                    0
 Integral screening is                        0
 Integral computing path is                   2
 max size of driver memory is            800000
 size of driver memory is                593474
 size of scratch memory is              2260544
 max col of scratch BK array               1296
 max len of scratch array in speh3          155
 max len of scratch index in speh4           18
 max int batch size is                      520
 min int batch size is                       52
 fixed nKL is                                52
 max L of basis functions is                  2
 order of int derivative is                   0
 number of shells is                         20
 number of basis is                          75
 number of cartesian basis is                75
 number of contracted shell pairs           201
 number of primitive shell pairs           1029
 maxK2 (contraction) of shell pair           36
 max number of K2 of shell pair               1
 max number of CS2 of shell pair             34
 max number of PS2 of shell pair            204
 mem total for path MDJ                   21832
 -------------------------------------------------------
 Smallest overlap matrix eigenvalue = 1.74E-03

 Scale SEOQF with 1.000000e+00/1.000000e-01/1.000000e+00

 Standard Electronic Orientation quadrupole field applied
 Nucleus-field energy     =     0.0000000101 hartrees
 Guess MOs from SCF MO coefficient file
 Reading MOs from coefficient file
 Reading MOs from coefficient file
 An unrestricted Hartree-Fock SCF calculation will be
 performed using Pulay DIIS extrapolation
 SCF converges when DIIS error is below 1.0E-08
 using 8 threads for integral computing 
 ---------------------------------------
  Cycle       Energy         DIIS Error
 ---------------------------------------
    1    -435.3395434543      4.28E-06
    2    -435.3395435037      2.60E-06
    3    -435.3395435268      1.72E-06
    4    -435.3395435659      9.28E-07
    5    -435.3395435810      4.23E-07
    6    -435.3395435838      2.17E-07
    7    -435.3395435841      1.27E-07
    8    -435.3395435842      6.31E-08
    9    -435.3395435842      2.58E-08
   10    -435.3395435842      9.12E-09 Convergence criterion met
 ---------------------------------------
 <S^2> = 0.0000
 SCF time:  CPU 11.46 s  wall 2.61 s
 SCF   energy in the final basis set = -435.3395435842
 Total energy in the final basis set = -435.3395435842
================================================================================
|                                                                              |
|                                 A D C  M A N                                 |
|                                                                              |
 ------------------------------------------------------------------------------ 
|                                                                              |
| Components:                                                                  |
|                                                                              |
| - libvmm - 1.2-release                                                       |
|   Authors:                                                                   |
|   Evgeny Epifanovsky, Ilya Kaliman                                           |
|                                                                              |
| - libtensor - 2.4-trunk                                                      |
|   Authors:                                                                   |
|   Evgeny Epifanovsky, Michael Wormit, Dmitry Zuev, Sam Manzer                |
|                                                                              |
| - libwfa - 1.1-beta                                                          |
|   Authors:                                                                   |
|   Felix Plasser, Stefanie Baeppler, Benjamin Thomitzni, Michael Wormit       |
|                                                                              |
| - libadc - 1.0-beta                                                          |
|   Authors:                                                                   |
|   Michael Wormit, Philipp H. P. Harbach, Caroline Krauter, Dirk Rehn,        |
|   Matthias Schneider, Jan Wenzel                                             |
|                                                                              |
| - adcman - 2.4-beta                                                          |
|   Authors:                                                                   |
|   Michael Wormit, Philipp H. P. Harbach, Caroline Krauter, Dirk Rehn,        |
|   Jan Wenzel, Andreas Dreuw                                                  |
|                                                                              |
| Authors of earlier versions of ADCMAN:                                       |
| Andreas Dreuw, Jan Hendrik Starcke, Dirk Rehn, Michael Wormit                |
|                                                                              |
================================================================================

 
 Alpha MOs, Unrestricted
 -- Occupied --                  
-26.537 -26.514 -26.493 -25.979 -11.735  -1.922  -1.825  -1.774
  1 A     2 A     3 A     4 A     5 A     6 A     7 A     8 A                  
 -1.245  -1.097  -0.997  -0.988  -0.933  -0.837  -0.824  -0.810
  9 A    10 A    11 A    12 A    13 A    14 A    15 A    16 A                  
 -0.792  -0.785  -0.350  -0.350  -0.340
 17 A    18 A    19 A    20 A    21 A                                          
 -- Virtual --                   
 -0.087   0.305   0.342   0.369   0.539   0.575   0.631   0.770
 22 A    23 A    24 A    25 A    26 A    27 A    28 A    29 A                  
  1.202   1.215   1.232   1.269   1.288   1.402   1.476   1.505
 30 A    31 A    32 A    33 A    34 A    35 A    36 A    37 A                  
  1.518   1.523   1.535   1.546   1.637   1.739   1.793   1.890
 38 A    39 A    40 A    41 A    42 A    43 A    44 A    45 A                  
  1.899   1.972   1.976   1.986   2.003   2.041   2.051   2.146
 46 A    47 A    48 A    49 A    50 A    51 A    52 A    53 A                  
  2.176   2.190   2.258   2.319   2.394   2.400   2.422   2.532
 54 A    55 A    56 A    57 A    58 A    59 A    60 A    61 A                  
  2.667   2.714   2.809   2.905   3.043   3.108   3.329   3.360
 62 A    63 A    64 A    65 A    66 A    67 A    68 A    69 A                  
  3.519   4.238   4.490   4.605   4.839   6.525
 70 A    71 A    72 A    73 A    74 A    75 A                                  
 
 Beta MOs, Unrestricted
 -- Occupied --                  
-26.537 -26.514 -26.493 -25.979 -11.735  -1.922  -1.825  -1.774
  1 A     2 A     3 A     4 A     5 A     6 A     7 A     8 A                  
 -1.245  -1.097  -0.997  -0.988  -0.933  -0.837  -0.824  -0.810
  9 A    10 A    11 A    12 A    13 A    14 A    15 A    16 A                  
 -0.792  -0.785  -0.350  -0.350  -0.340
 17 A    18 A    19 A    20 A    21 A                                          
 -- Virtual --                   
 -0.087   0.305   0.342   0.369   0.539   0.575   0.631   0.770
 22 A    23 A    24 A    25 A    26 A    27 A    28 A    29 A                  
  1.202   1.215   1.232   1.269   1.288   1.402   1.476   1.505
 30 A    31 A    32 A    33 A    34 A    35 A    36 A    37 A                  
  1.518   1.523   1.535   1.546   1.637   1.739   1.793   1.890
 38 A    39 A    40 A    41 A    42 A    43 A    44 A    45 A                  
  1.899   1.972   1.976   1.986   2.003   2.041   2.051   2.146
 46 A    47 A    48 A    49 A    50 A    51 A    52 A    53 A                  
  2.176   2.190   2.258   2.319   2.394   2.400   2.422   2.532
 54 A    55 A    56 A    57 A    58 A    59 A    60 A    61 A                  
  2.667   2.714   2.809   2.905   3.043   3.108   3.329   3.360
 62 A    63 A    64 A    65 A    66 A    67 A    68 A    69 A                  
  3.519   4.238   4.490   4.605   4.839   6.525
 70 A    71 A    72 A    73 A    74 A    75 A                                  
 

--------------------------------------------------------------------------------
                                   HF Summary                                   
--------------------------------------------------------------------------------
  Energy:                                                 -435.3395435842 a.u.
  Dip. moment [a.u.]:                  [ -56.710412,  183.558127,    1.185965]
  Total dipole [Debye]:                                             488.326833
  <r^2> [a.u.]:                        [ 160.375825,  946.083400,   94.184331]
  Total <r^2> [a.u.]:                                              1200.643557
--------------------------------------------------------------------------------

--------------------------------------------------------------------------------
                                 MP(2) Summary                                  
--------------------------------------------------------------------------------
  Energy contribution:                                      -0.8268813112 a.u.
  Total energy:                                           -436.1664248955 a.u.
  Dip. moment [a.u.]:                  [ -56.508898,  184.111243,    0.977954]
  Total dipole [Debye]:                                             489.516718
  <r^2> [a.u.]:                        [ 159.655087,  950.979938,   94.003196]
  Total <r^2> [a.u.]:                                              1204.638222
--------------------------------------------------------------------------------
  Starting Davidson ... 
--------------------------------------------------------------------------------
   It NVec Conv  Avg. Norm  Max. Norm  Conv. states           Remark
--------------------------------------------------------------------------------
        20    0  2.045e-01  1.054e+00 10.9350 n n n n n n n n Guess.
    1   40    0  4.246e-02  4.322e-01 10.7677 n n n n n n n n 
    2   60    0  3.822e-02  7.367e-01 10.7664 n n n n n n n n 
    3   80    0  2.968e-02  5.899e-01 10.7664 n n n n n n n n 
    4  100    0  4.774e-02  8.121e-01 10.7663 n n n n n n n n 
    5   40    0  4.290e-02  7.315e-01 10.7663 n n n n n n n n Subspace collapsed.
    6   60    0  4.124e-02  7.101e-01 10.7663 n n n n n n n n 
    7   80    0  4.063e-02  7.061e-01 10.7663 n n n n n n n n 
    8  100    2  3.810e-02  6.528e-01 10.7663 y y n n n n n n 
    9   40    6  3.635e-02  6.263e-01 10.7663 y y n y n y y y Subspace collapsed.
   10   60    7  3.371e-02  5.694e-01 10.7663 y y n y y y y y 
   11   80    8  3.140e-02  5.244e-01 10.7663 y y y y y y y y 
   12  100   12  3.001e-02  5.034e-01 10.7663 y y y y y y y y 
   13   40   14  2.812e-02  4.744e-01 10.7663 y y y y y y y y Subspace collapsed.
   14   60   15  2.743e-02  4.631e-01 10.7663 y y y y y y y y 
   15   80   15  2.591e-02  4.374e-01 10.7663 y y y y y y y y 
   16  100   15  2.522e-02  4.281e-01 10.7663 y y y y y y y y 
   17   38   15  2.499e-02  4.248e-01 10.7663 y y y y y y y y Subspace collapsed.
   18   56   16  2.454e-02  4.196e-01 10.7663 y y y y y y y y 
   19   59   16  2.457e-02  4.205e-01 10.7663 y y y y y y y y 
   20   73   16  2.439e-02  4.210e-01 10.7663 y y y y y y y y 
   21   87   16  2.367e-02  4.113e-01 10.7663 y y y y y y y y 
   22  100   16  2.343e-02  4.095e-01 10.7663 y y y y y y y y 
   23   33   16  2.247e-02  3.931e-01 10.7663 y y y y y y y y Subspace collapsed.
   24   45   16  2.179e-02  3.854e-01 10.7663 y y y y y y y y 
   25   57   16  2.175e-02  3.889e-01 10.7663 y y y y y y y y 
   26   58   16  2.169e-02  3.888e-01 10.7663 y y y y y y y y 
   27   59   16  2.165e-02  3.878e-01 10.7663 y y y y y y y y 
   28   60   16  2.165e-02  3.876e-01 10.7663 y y y y y y y y 
   29   61   16  2.166e-02  3.882e-01 10.7663 y y y y y y y y 
   30   61   16  2.166e-02  3.882e-01 10.7663 y y y y y y y y 
   31   80   16  3.774e-02  6.489e-01 10.7663 y y y y y y y y 
   32   88   16  2.142e-02  3.608e-01 10.7663 y y y y y y y y 
   33   96   16  2.106e-02  3.583e-01 10.7663 y y y y y y y y 
   34   96   16  2.106e-02  3.583e-01 10.7663 y y y y y y y y 
   35   98   16  2.069e-02  3.537e-01 10.7663 y y y y y y y y 
   36   99   16  2.045e-02  3.507e-01 10.7663 y y y y y y y y 
   37  100   16  2.020e-02  3.460e-01 10.7663 y y y y y y y y 
   38   21   16  2.020e-02  3.460e-01 10.7663 y y y y y y y y Subspace collapsed.
   39   21   16  2.020e-02  3.460e-01 10.7663 y y y y y y y y 
   40   21   16  2.020e-02  3.460e-01 10.7663 y y y y y y y y 
   41   41   16  1.889e-02  3.303e-01 10.7663 y y y y y y y y 
   42   41   16  1.889e-02  3.303e-01 10.7663 y y y y y y y y 
   43   42   16  1.876e-02  3.295e-01 10.7663 y y y y y y y y 
   44   42   16  1.876e-02  3.295e-01 10.7663 y y y y y y y y 
   45   43   16  1.875e-02  3.293e-01 10.7663 y y y y y y y y 
   46   44   16  1.877e-02  3.301e-01 10.7663 y y y y y y y y 
   47   45   16  1.876e-02  3.301e-01 10.7663 y y y y y y y y 
   48   46   16  1.869e-02  3.286e-01 10.7663 y y y y y y y y 
   49   49   16  1.837e-02  3.222e-01 10.7663 y y y y y y y y 
   50   53   16  1.822e-02  3.193e-01 10.7663 y y y y y y y y 
   51   57   14  1.823e-02  3.196e-01 10.7663 n n y y y y y y 
   52   61    3  1.807e-02  3.178e-01 10.7663 n n n n n n n n 
   53   81    0  1.414e-02  2.584e-01 10.7663 n n n n n n n n 
   54  100    0  4.820e-02  9.197e-01 10.6334 n n n n n n n n 
   55   40    0  9.441e-03  1.205e-01 10.7691 n n n n n n n n Subspace collapsed.
   56   60    0  4.621e-03  8.010e-02 10.7665 n n n n n n n n 
   57   80    0  2.906e-03  5.464e-02 10.7664 n n n n n n n n 
   58  100    0  1.371e-03  2.319e-02 10.7663 n n n n n n n n 
   59   40    0  7.325e-04  1.260e-02 10.7663 n n n n n n n n Subspace collapsed.
--------------------------------------------------------------------------------
  Davidson Summary: 
 ------------------------------------------------------------
  State  0: excitation energy =  10.7663 a.u.   (not converged)
  State  1: excitation energy =  10.8311 a.u.   (not converged)
  State  2: excitation energy =  11.0946 a.u.   (not converged)
  State  3: excitation energy =  11.1540 a.u.   (not converged)
  State  4: excitation energy =  11.1725 a.u.   (not converged)
  State  5: excitation energy =  11.2173 a.u.   (not converged)
  State  6: excitation energy =  11.2306 a.u.   (not converged)
  State  7: excitation energy =  11.2856 a.u.   (not converged)
  State  8: excitation energy =  11.4712 a.u.   (not converged)
  State  9: excitation energy =  11.5240 a.u.   (not converged)
  State 10: excitation energy =  11.5356 a.u.   (not converged)
  State 11: excitation energy =  11.5399 a.u.   (not converged)
  State 12: excitation energy =  11.5532 a.u.   (not converged)
  State 13: excitation energy =  11.5633 a.u.   (not converged)
  State 14: excitation energy =  11.7434 a.u.   (not converged)
  State 15: excitation energy =  11.7636 a.u.   (not converged)
  State 16: excitation energy =  11.9028 a.u.   (not converged)
  State 17: excitation energy =  11.9030 a.u.   (not converged)
  State 18: excitation energy =  11.9117 a.u.   (not converged)
  State 19: excitation energy =  11.9124 a.u.   (not converged)
 ------------------------------------------------------------


--------------------------------------------------------------------------------
                             Excited State Summary
--------------------------------------------------------------------------------

  Excited state  1 (A)                                         [not converged]
  ----------------------------------------------------------------------------
  Term symbol:  2 (-) A                                     R^2 =  1.07586e-04

  Total energy:                                           -425.4000759568 a.u.
  Excitation energy:                                             292.967254 eV


  V1^2 = 0.9513, V2^2 = 0.0487

  Important amplitudes:
     core i     occ j      vir a      vir b          v   
    ------------------------------------------------------
     5 (A) A              22 (A) A                 0.6479
     5 (A) B              22 (A) B                -0.6479
    ------------------------------------------------------
  ----------------------------------------------------------------------------


  Excited state  2 (A)                                         [not converged]
  ----------------------------------------------------------------------------
  Term symbol:  3 (-) A                                     R^2 =  4.69970e-05

  Total energy:                                           -425.3353471435 a.u.
  Excitation energy:                                             294.728615 eV


  V1^2 = 0.9447, V2^2 = 0.0553

  Important amplitudes:
     core i     occ j      vir a      vir b          v   
    ------------------------------------------------------
     5 (A) B              22 (A) B                -0.6608
     5 (A) A              22 (A) A                -0.6608
    ------------------------------------------------------
  ----------------------------------------------------------------------------


  Excited state  3 (A)                                         [not converged]
  ----------------------------------------------------------------------------
  Term symbol:  4 (-) A                                     R^2 =  1.44832e-05

  Total energy:                                           -425.0718259397 a.u.
  Excitation energy:                                             301.899391 eV


  V1^2 = 0.9451, V2^2 = 0.0549

  Important amplitudes:
     core i     occ j      vir a      vir b          v   
    ------------------------------------------------------
     5 (A) B              23 (A) B                 0.5979
     5 (A) A              23 (A) A                -0.5979
    ------------------------------------------------------
  ----------------------------------------------------------------------------


  Excited state  4 (A)                                         [not converged]
  ----------------------------------------------------------------------------
  Term symbol:  5 (-) A                                     R^2 =  1.72109e-05

  Total energy:                                           -425.0124394911 a.u.
  Excitation energy:                                             303.515379 eV


  V1^2 = 0.9409, V2^2 = 0.0591

  Important amplitudes:
     core i     occ j      vir a      vir b          v   
    ------------------------------------------------------
     5 (A) B              24 (A) B                 0.5485
     5 (A) A              24 (A) A                -0.5485
    ------------------------------------------------------
  ----------------------------------------------------------------------------


  Excited state  5 (A)                                         [not converged]
  ----------------------------------------------------------------------------
  Term symbol:  6 (-) A                                     R^2 =  2.40786e-06

  Total energy:                                           -424.9939586555 a.u.
  Excitation energy:                                             304.018268 eV


  V1^2 = 0.9367, V2^2 = 0.0633

  Important amplitudes:
     core i     occ j      vir a      vir b          v   
    ------------------------------------------------------
     5 (A) A              23 (A) A                -0.6212
     5 (A) B              23 (A) B                -0.6212
    ------------------------------------------------------
  ----------------------------------------------------------------------------


  Excited state  6 (A)                                         [not converged]
  ----------------------------------------------------------------------------
  Term symbol:  7 (-) A                                     R^2 =  9.28295e-06

  Total energy:                                           -424.9491597260 a.u.
  Excitation energy:                                             305.237309 eV


  V1^2 = 0.9383, V2^2 = 0.0617

  Important amplitudes:
     core i     occ j      vir a      vir b          v   
    ------------------------------------------------------
     5 (A) A              25 (A) A                -0.5236
     5 (A) B              25 (A) B                 0.5236
    ------------------------------------------------------
  ----------------------------------------------------------------------------


  Excited state  7 (A)                                         [not converged]
  ----------------------------------------------------------------------------
  Term symbol:  8 (-) A                                     R^2 =  9.73311e-06

  Total energy:                                           -424.9357996904 a.u.
  Excitation energy:                                             305.600854 eV


  V1^2 = 0.9301, V2^2 = 0.0699

  Important amplitudes:
     core i     occ j      vir a      vir b          v   
    ------------------------------------------------------
     5 (A) A              24 (A) A                -0.5847
     5 (A) B              24 (A) B                -0.5847
    ------------------------------------------------------
  ----------------------------------------------------------------------------


  Excited state  8 (A)                                         [not converged]
  ----------------------------------------------------------------------------
  Term symbol:  9 (-) A                                     R^2 =  1.01088e-05

  Total energy:                                           -424.8808212931 a.u.
  Excitation energy:                                             307.096892 eV


  V1^2 = 0.9268, V2^2 = 0.0732

  Important amplitudes:
     core i     occ j      vir a      vir b          v   
    ------------------------------------------------------
     5 (A) B              25 (A) B                -0.5716
     5 (A) A              25 (A) A                -0.5716
    ------------------------------------------------------
  ----------------------------------------------------------------------------


  Excited state  9 (A)                                         [not converged]
  ----------------------------------------------------------------------------
  Term symbol:  10 (-) A                                    R^2 =  7.02590e-05

  Total energy:                                           -424.6952511284 a.u.
  Excitation energy:                                             312.146513 eV


  V1^2 = 0.9153, V2^2 = 0.0847

  Important amplitudes:
     core i     occ j      vir a      vir b          v   
    ------------------------------------------------------
     5 (A) B              26 (A) B                -0.6059
     5 (A) A              26 (A) A                 0.6059
    ------------------------------------------------------
  ----------------------------------------------------------------------------


  Excited state 10 (A)                                         [not converged]
  ----------------------------------------------------------------------------
  Term symbol:  11 (-) A                                    R^2 =  6.63909e-05

  Total energy:                                           -424.6423892749 a.u.
  Excitation energy:                                             313.584957 eV


  V1^2 = 0.9151, V2^2 = 0.0849

  Important amplitudes:
     core i     occ j      vir a      vir b          v   
    ------------------------------------------------------
     5 (A) A              26 (A) A                -0.6366
     5 (A) B              26 (A) B                -0.6366
    ------------------------------------------------------
  ----------------------------------------------------------------------------


  Excited state 11 (A)                                         [not converged]
  ----------------------------------------------------------------------------
  Term symbol:  12 (-) A                                    R^2 =  7.25880e-06

  Total energy:                                           -424.6308261647 a.u.
  Excitation energy:                                             313.899606 eV


  V1^2 = 0.8904, V2^2 = 0.1096

  Important amplitudes:
     core i     occ j      vir a      vir b          v   
    ------------------------------------------------------
     5 (A) B              27 (A) B                -0.5261
     5 (A) A              27 (A) A                 0.5261
    ------------------------------------------------------
  ----------------------------------------------------------------------------


  Excited state 12 (A)                                         [not converged]
  ----------------------------------------------------------------------------
  Term symbol:  13 (-) A                                    R^2 =  6.56463e-06

  Total energy:                                           -424.6265631369 a.u.
  Excitation energy:                                             314.015608 eV


  V1^2 = 0.8921, V2^2 = 0.1079

  Important amplitudes:
     core i     occ j      vir a      vir b          v   
    ------------------------------------------------------
     5 (A) A              28 (A) A                -0.4912
     5 (A) B              28 (A) B                 0.4912
    ------------------------------------------------------
  ----------------------------------------------------------------------------


  Excited state 13 (A)                                         [not converged]
  ----------------------------------------------------------------------------
  Term symbol:  14 (-) A                                    R^2 =  1.17410e-06

  Total energy:                                           -424.6132581832 a.u.
  Excitation energy:                                             314.377655 eV


  V1^2 = 0.8937, V2^2 = 0.1063

  Important amplitudes:
     core i     occ j      vir a      vir b          v   
    ------------------------------------------------------
     5 (A) A              27 (A) A                 0.5687
     5 (A) B              27 (A) B                 0.5687
    ------------------------------------------------------
  ----------------------------------------------------------------------------


  Excited state 14 (A)                                         [not converged]
  ----------------------------------------------------------------------------
  Term symbol:  15 (-) A                                    R^2 =  3.26436e-06

  Total energy:                                           -424.6031117365 a.u.
  Excitation energy:                                             314.653754 eV


  V1^2 = 0.8972, V2^2 = 0.1028

  Important amplitudes:
     core i     occ j      vir a      vir b          v   
    ------------------------------------------------------
     5 (A) B              28 (A) B                 0.5568
     5 (A) A              28 (A) A                 0.5568
    ------------------------------------------------------
  ----------------------------------------------------------------------------


  Excited state 15 (A)                                         [not converged]
  ----------------------------------------------------------------------------
  Term symbol:  16 (-) A                                    R^2 =  2.84665e-05

  Total energy:                                           -424.4229957552 a.u.
  Excitation energy:                                             319.554959 eV


  V1^2 = 0.8758, V2^2 = 0.1242

  Important amplitudes:
     core i     occ j      vir a      vir b          v   
    ------------------------------------------------------
     5 (A) B              29 (A) B                -0.6258
     5 (A) A              29 (A) A                 0.6258
    ------------------------------------------------------
  ----------------------------------------------------------------------------


  Excited state 16 (A)                                         [not converged]
  ----------------------------------------------------------------------------
  Term symbol:  17 (-) A                                    R^2 =  6.28982e-06

  Total energy:                                           -424.4028452178 a.u.
  Excitation energy:                                             320.103283 eV


  V1^2 = 0.8773, V2^2 = 0.1227

  Important amplitudes:
     core i     occ j      vir a      vir b          v   
    ------------------------------------------------------
     5 (A) A              29 (A) A                 0.6421
     5 (A) B              29 (A) B                 0.6421
    ------------------------------------------------------
  ----------------------------------------------------------------------------


  Excited state 17 (A)                                         [not converged]
  ----------------------------------------------------------------------------
  Term symbol:  18 (-) A                                    R^2 =  1.25970e-02

  Total energy:                                           -424.2636114524 a.u.
  Excitation energy:                                             323.892026 eV


  V1^2 = 0.0015, V2^2 = 0.9985

  Important amplitudes:
     core i     occ j      vir a      vir b          v   
    ------------------------------------------------------
     5 (A) B   21 (A) A   22 (A) A   22 (A) B     -0.5616
     5 (A) A   21 (A) B   22 (A) A   22 (A) B     -0.4286
    ------------------------------------------------------
  ----------------------------------------------------------------------------


  Excited state 18 (A)                                         [not converged]
  ----------------------------------------------------------------------------
  Term symbol:  19 (-) A                                    R^2 =  7.33316e-03

  Total energy:                                           -424.2634250783 a.u.
  Excitation energy:                                             323.897098 eV


  V1^2 = 0.0020, V2^2 = 0.9980

  Important amplitudes:
     core i     occ j      vir a      vir b          v   
    ------------------------------------------------------
     5 (A) A   21 (A) B   22 (A) A   22 (A) B      0.5615
     5 (A) B   21 (A) A   22 (A) A   22 (A) B     -0.4284
    ------------------------------------------------------
  ----------------------------------------------------------------------------


  Excited state 19 (A)                                         [not converged]
  ----------------------------------------------------------------------------
  Term symbol:  20 (-) A                                    R^2 =  1.38533e-03

  Total energy:                                           -424.2546833385 a.u.
  Excitation energy:                                             324.134972 eV


  V1^2 = 0.0000, V2^2 = 1.0000

  Important amplitudes:
     core i     occ j      vir a      vir b          v   
    ------------------------------------------------------
     5 (A) A   20 (A) B   22 (A) A   22 (A) B     -0.6307
     5 (A) B   20 (A) A   22 (A) A   22 (A) B      0.3196
    ------------------------------------------------------
  ----------------------------------------------------------------------------


  Excited state 20 (A)                                         [not converged]
  ----------------------------------------------------------------------------
  Term symbol:  21 (-) A                                    R^2 =  4.87393e-04

  Total energy:                                           -424.2540421630 a.u.
  Excitation energy:                                             324.152420 eV


  V1^2 = 0.0002, V2^2 = 0.9998

  Important amplitudes:
     core i     occ j      vir a      vir b          v   
    ------------------------------------------------------
     5 (A) A   19 (A) B   22 (A) A   22 (A) B      0.6851
     5 (A) B   19 (A) A   22 (A) A   22 (A) B     -0.1749
    ------------------------------------------------------
  ----------------------------------------------------------------------------


--------------------------------------------------------------------------------
  Time of ADC calculation:  CPU 3503.02 s  wall 2142.36 s
================================================================================
 
 --------------------------------------------------------------
 
                    Orbital Energies (a.u.)
 --------------------------------------------------------------
 
 Alpha MOs
 -- Occupied --
-26.537 -26.514 -26.493 -25.979 -11.735  -1.922  -1.825  -1.774
 -1.245  -1.097  -0.997  -0.988  -0.933  -0.837  -0.824  -0.810
 -0.792  -0.785  -0.350  -0.350  -0.340
 -- Virtual --
 -0.087   0.305   0.342   0.369   0.539   0.575   0.631   0.770
  1.202   1.215   1.232   1.269   1.288   1.402   1.476   1.505
  1.518   1.523   1.535   1.546   1.637   1.739   1.793   1.890
  1.899   1.972   1.976   1.986   2.003   2.041   2.051   2.146
  2.176   2.190   2.258   2.319   2.394   2.400   2.422   2.532
  2.667   2.714   2.809   2.905   3.043   3.108   3.329   3.360
  3.519   4.238   4.490   4.605   4.839   6.525
 
 Beta MOs
 -- Occupied --
-26.537 -26.514 -26.493 -25.979 -11.735  -1.922  -1.825  -1.774
 -1.245  -1.097  -0.997  -0.988  -0.933  -0.837  -0.824  -0.810
 -0.792  -0.785  -0.350  -0.350  -0.340
 -- Virtual --
 -0.087   0.305   0.342   0.369   0.539   0.575   0.631   0.770
  1.202   1.215   1.232   1.269   1.288   1.402   1.476   1.505
  1.518   1.523   1.535   1.546   1.637   1.739   1.793   1.890
  1.899   1.972   1.976   1.986   2.003   2.041   2.051   2.146
  2.176   2.190   2.258   2.319   2.394   2.400   2.422   2.532
  2.667   2.714   2.809   2.905   3.043   3.108   3.329   3.360
  3.519   4.238   4.490   4.605   4.839   6.525
 --------------------------------------------------------------
 
          Ground-State Mulliken Net Atomic Charges

     Atom                 Charge (a.u.)    Spin (a.u.)
  --------------------------------------------------------
      1 C                     1.233096       0.000000
      2 F                    -0.030505       0.000000
      3 F                    -0.207387       0.000000
      4 F                    -0.858868       0.000000
      5 F                    -0.136336       0.000000
  --------------------------------------------------------
  Sum of atomic charges =     0.000000
  Sum of spin   charges =     0.000000

 -----------------------------------------------------------------
                    Cartesian Multipole Moments
 -----------------------------------------------------------------
    Charge (ESU x 10^10)
                 0.0000
    Dipole Moment (Debye)
         X       3.2206      Y       8.4318      Z      -3.1907
       Tot       9.5733
    Quadrupole Moments (Debye-Ang)
        XX     -27.3587     XY       0.1245     YY       9.0315
        XZ       2.7538     YZ      -5.4793     ZZ     -23.7437
    Octopole Moments (Debye-Ang^2)
       XXX      54.1790    XXY     -56.2430    XYY       9.7555
       YYY     -57.8682    XXZ      -2.9778    XYZ       3.0509
       YYZ     -14.2651    XZZ      17.0117    YZZ     -53.4777
       ZZZ      -1.2570
    Hexadecapole Moments (Debye-Ang^3)
      XXXX    -144.0629   XXXY     114.1824   XXYY    -170.3298
      XYYY      88.1095   YYYY    -557.9330   XXXZ       4.4539
      XXYZ      -0.4231   XYYZ       4.9686   YYYZ     -39.0134
      XXZZ     -36.0679   XYZZ      36.7849   YYZZ    -157.4008
      XZZZ       1.7382   YZZZ       5.5027   ZZZZ     -78.0854
 -----------------------------------------------------------------
Archival summary:
1\1\tp-linux1\SP\HF\6-31G*\41\thomas\MonMar2018:56:292017MonMar2018:56:292017\0\\#,HF,6-31G*,\\0,1\F\C,1,1.20534\F,2,1.26677,1,117.526\F,2,1.33235,1,115.032,3,-136.899,0\F,1,2.21608,2,81.4805,3,63.7356,0\\HF=-435.339544\\@

 Total job time:  2147.19s(wall), 3518.51s(cpu) 
 Mon Mar 20 18:56:29 2017

        *************************************************************
        *                                                           *
        *  Thank you very much for using Q-Chem.  Have a nice day.  *
        *                                                           *
        *************************************************************


0 sent ACK to 0 
now end server 0 ... 
cleanup process ... done
