
Running Job 1 of 2 ddtraj1t4.inp
qchem ddtraj1t4.inp_16405.0 /scratch/qchem/qchem16405/ 1
/mnt/software/qchem/bin/mpi/mpirun_qchem -machinefile /mnt/software/qchem/bin/mpi/machines -np 1 /mnt/software/qchem/exe/qcprog.exe ddtraj1t4.inp_16405.0 /scratch/qchem/qchem16405/

Process 0 of 1 is on tp-linux1 - thread support 0
initial socket setup ...start
initial socket setup ...done 
now start server 0 ... 

cmd = ssh tp-linux1 /mnt/software/qchem/bin/get_hostid 479910597 > /scratch/qchem/qchem16405/lic.dat
                  Welcome to Q-Chem
     A Quantum Leap Into The Future Of Chemistry


 Q-Chem 4.3, Q-Chem, Inc., Pleasanton, CA (2015)

 Y. Shao,  Z. Gan,  E. Epifanovsky,  A. T. B. Gilbert,  M. Wormit,  
 J. Kussmann,  A. W. Lange,  A. Behn,  J. Deng,  X. Feng,  D. Ghosh,  
 M. Goldey,  P. R. Horn,  L. D. Jacobson,  I. Kaliman,  R. Z. Khaliullin,  
 T. Kus,  A. Landau,  J. Liu,  E. I. Proynov,  Y. M. Rhee,  R. M. Richard,  
 M. A. Rohrdanz,  R. P. Steele,  E. J. Sundstrom,  H. L. Woodcock III,  
 P. M. Zimmerman,  D. Zuev,  B. Albrecht,  E. Alguire,  B. Austin,  
 S. A. Baeppler,  G. J. O. Beran,  Y. A. Bernard,  E. Berquist,  
 K. Brandhorst,  K. B. Bravaya,  S. T. Brown,  D. Casanova,  C.-M. Chang,  
 Y. Chen,  S. H. Chien,  K. D. Closser,  D. L. Crittenden,  M. Diedenhofen,  
 R. A. DiStasio Jr.,  H. Do,  A. D. Dutoi,  R. G. Edgar,  P.-T. Fang,  
 S. Fatehi,  Q. Feng,  L. Fusti-Molnar,  A. Ghysels,  
 A. Golubeva-Zadorozhnaya,  J. Gomes,  A. Gunina,  M. W. D. Hanson-Heine,  
 P. H. P. Harbach,  A. W. Hauser,  E. G. Hohenstein,  Z. C. Holden,  K. Hui,  
 T.-C. Jagau,  H. Ji,  B. Kaduk,  K. Khistyaev,  Jaehoon Kim,  Jihan Kim,  
 R. A. King,  P. Klunzinger,  D. Kosenkov,  T. Kowalczyk,  C. M. Krauter,  
 K. U. Lao,  A. Laurent,  K. V. Lawler,  S. Lehtola,  S. V. Levchenko,  
 C. Y. Lin,  Y.-S. Lin,  F. Liu,  E. Livshits,  R. C. Lochan,  A. Luenser,  
 P. Manohar,  S. F. Manzer,  S.-P. Mao,  N. Mardirossian,  A. V. Marenich,  
 L. A. Martinez-Martinez,  S. A. Maurer,  N. J. Mayhall,  K. Nanda,  
 C. M. Oana,  R. Olivares-Amaya,  D. P. O'Neill,  J. A. Parkhill,  
 T. M. Perrine,  R. Peverati,  P. A. Pieniazek,  F. Plasser,  A. Prociuk,  
 D. R. Rehn,  E. Rosta,  N. J. Russ,  N. Sergueev,  S. M. Sharada,  
 S. Sharma,  D. W. Small,  A. Sodt,  T. Stauch,  T. Stein,  D. Stuck,  
 Y.-C. Su,  A. J. W. Thom,  T. Tsuchimochi,  L. Vogt,  O. Vydrov,  T. Wang,  
 M. A. Watson,  J. Wenzel,  A. White,  C. F. Williams,  V. Vanovschi,  
 S. Yeganeh,  S. R. Yost,  Z.-Q. You,  I. Y. Zhang,  X. Zhang,  Y. Zhao,  
 B. R. Brooks,  G. K. L. Chan,  D. M. Chipman,  C. J. Cramer,  
 W. A. Goddard III,  M. S. Gordon,  W. J. Hehre,  A. Klamt,  
 H. F. Schaefer III,  M. W. Schmidt,  C. D. Sherrill,  D. G. Truhlar,  
 A. Warshel,  X. Xu,  A. Aspuru-Guzik,  R. Baer,  A. T. Bell,  N. A. Besley,  
 J.-D. Chai,  A. Dreuw,  B. D. Dunietz,  T. R. Furlani,  S. R. Gwaltney,  
 C.-P. Hsu,  Y. Jung,  J. Kong,  D. S. Lambrecht,  W. Liang,  C. Ochsenfeld,  
 V. A. Rassolov,  L. V. Slipchenko,  J. E. Subotnik,  T. Van Voorhis,  
 J. M. Herbert,  A. I. Krylov,  P. M. W. Gill,  M. Head-Gordon

 Contributors to earlier versions of Q-Chem not listed above: 
 R. D. Adamson,  J. Baker,  E. F. C. Byrd,  A. K. Chakraborty,  C.-L. Cheng,  
 H. Dachsel,  R. J. Doerksen,  G. Hawkins,  A. Heyden,  S. Hirata,  
 G. Kedziora,  F. J. Keil,  C. Kelley,  P. P. Korambath,  W. Kurlancheek,  
 A. M. Lee,  M. S. Lee,  D. Liotard,  I. Lotan,  P. E. Maslen,  N. Nair,  
 D. Neuhauser,  R. Olson,  B. Peters,  J. Ritchie,  N. E. Schultz,  
 N. Shenvi,  A. C. Simmonett,  K. S. Thanthiriwatte,  Q. Wu,  W. Zhang

 Please cite Q-Chem as follows:
 Y. Shao et al., Mol. Phys. 113, 184-215 (2015)
 DOI: 10.1080/00268976.2014.952696

 Q-Chem 4.3.0 for Intel X86 Linux

 Parts of Q-Chem use Armadillo 5.200.1 (Boston Tea Smuggler).
 http://arma.sourceforge.net/

 Q-Chem begins on Thu Mar 16 14:19:19 2017  

Host: 
0

     Scratch files written to /scratch/qchem/qchem16405//
 Nov1815 1189b_ 19540  19532 5443   
 Parallel job on  1  processors
Processing $rem in /mnt/software/qchem/config/preferences.
 MEM_TOTAL  2000 

Checking the input file for inconsistencies... 	...done.

--------------------------------------------------------------
User input:
--------------------------------------------------------------
$comment
XAS calculation for the 2b valence excited for water using cvs-adc(2)-x + 6-311+G* basis set
job 1 - determination of HF orbitals
$end

$molecule
0 1
6  -0.653486  2.425162  -0.00451
9  0.605142  2.346944  -0.002629
9  -1.136924  3.274034  0.783359
9  -1.151012  1.172823  0.441123
9  -1.141625  2.555518  -1.226867
$end

$rem
jobtype      sp
sym_ignore true
exchange     hf
basis        6-31G*
unrestricted true
$end

--------------------------------------------------------------
 ----------------------------------------------------------------
             Standard Nuclear Orientation (Angstroms)
    I     Atom           X                Y                Z
 ----------------------------------------------------------------
    1      C      -0.6534860000     2.4251620000    -0.0045100000
    2      F       0.6051420000     2.3469440000    -0.0026290000
    3      F      -1.1369240000     3.2740340000     0.7833590000
    4      F      -1.1510120000     1.1728230000     0.4411230000
    5      F      -1.1416250000     2.5555180000    -1.2268670000
 ----------------------------------------------------------------
 Nuclear Repulsion Energy =   207.1984577473 hartrees
 There are       21 alpha and       21 beta electrons
 Requested basis set is 6-31G(d)
 There are 20 shells and 75 basis functions

 Total QAlloc Memory Limit   2000 MB
 Mega-Array Size        61 MB
 MEM_STATIC part        62 MB

                       Distance Matrix (Angstroms)
             C (  1)   F (  2)   F (  3)   F (  4)
   F (  2)  1.261058
   F (  3)  1.255003  2.124163
   F (  4)  1.419322  2.158600  2.128946
   F (  5)  1.322660  2.143235  2.134782  2.166593
 
 tim1(1): 
  0.000000000000000E+000
 tim1(2): 
  0.000000000000000E+000
 A cutoff of  1.0D-08 yielded    202 shell pairs
 There are      2971 function pairs
 
 -------------------------------------------------------
 OpenMP Integral Computing Module                       
 Release: version 1.0, May 2013, Q-Chem Inc. Pittsburgh 
 -------------------------------------------------------
 Integral Job Info:
 Integral job number is                      11
 Integral operator is                         1
 short-range coefficients                     0
 long-range coefficients              100000000
 Omega coefficients                           0
 if combine SR and LR in K                    0
 Integral screening is                        0
 Integral computing path is                   2
 max size of driver memory is            800000
 size of driver memory is                593474
 size of scratch memory is              2260544
 max col of scratch BK array               1296
 max len of scratch array in speh3          155
 max len of scratch index in speh4           18
 max int batch size is                      520
 min int batch size is                       52
 fixed nKL is                                52
 max L of basis functions is                  2
 order of int derivative is                   0
 number of shells is                         20
 number of basis is                          75
 number of cartesian basis is                75
 number of contracted shell pairs           202
 number of primitive shell pairs            976
 maxK2 (contraction) of shell pair           36
 max number of K2 of shell pair               1
 max number of CS2 of shell pair             31
 max number of PS2 of shell pair            180
 mem total for path MDJ                   21832
 -------------------------------------------------------
 Smallest overlap matrix eigenvalue = 1.78E-03

 Scale SEOQF with 1.000000e+00/1.000000e-01/1.000000e+00

 Standard Electronic Orientation quadrupole field applied
 Nucleus-field energy     =     0.0000000104 hartrees
 Guess from superposition of atomic densities
 Warning:  Energy on first SCF cycle will be non-variational
 An unrestricted Hartree-Fock SCF calculation will be
 performed using Pulay DIIS extrapolation
 SCF converges when DIIS error is below 1.0E-05
 using 8 threads for integral computing 
 ---------------------------------------
  Cycle       Energy         DIIS Error
 ---------------------------------------
    1    -436.5654349337      8.85E-02
    2    -435.4639205536      1.74E-02
    3    -435.5853715209      9.94E-03
    4    -435.6289844229      1.02E-03
    5    -435.6297512079      3.26E-04
    6    -435.6298604473      6.81E-05
    7    -435.6298654077      3.13E-05
    8    -435.6298660597      3.98E-06 Convergence criterion met
 ---------------------------------------
 <S^2> = 0.0000
 SCF time:  CPU 8.10 s  wall 1.85 s
 SCF   energy in the final basis set = -435.6298660597
 Total energy in the final basis set = -435.6298660597
 
 --------------------------------------------------------------
 
                    Orbital Energies (a.u.)
 --------------------------------------------------------------
 
 Alpha MOs
 -- Occupied --
-26.401 -26.400 -26.374 -26.326 -11.612  -1.823  -1.721  -1.683
 -1.611  -1.011  -0.906  -0.896  -0.878  -0.766  -0.757  -0.728
 -0.711  -0.687  -0.667  -0.651  -0.647
 -- Virtual --
  0.356   0.416   0.440   0.474   0.657   0.683   0.696   0.705
  1.280   1.286   1.294   1.296   1.312   1.419   1.562   1.573
  1.590   1.608   1.613   1.658   1.667   1.689   1.757   1.844
  1.870   2.068   2.079   2.080   2.118   2.130   2.145   2.237
  2.257   2.278   2.282   2.322   2.355   2.386   2.408   2.580
  2.792   2.936   3.018   3.148   3.166   3.329   3.421   3.429
  3.483   4.527   4.716   4.783   4.899   6.260
 
 Beta MOs
 -- Occupied --
-26.401 -26.400 -26.374 -26.326 -11.612  -1.823  -1.721  -1.683
 -1.611  -1.011  -0.906  -0.896  -0.878  -0.766  -0.757  -0.728
 -0.711  -0.687  -0.667  -0.651  -0.647
 -- Virtual --
  0.356   0.416   0.440   0.474   0.657   0.683   0.696   0.705
  1.280   1.286   1.294   1.296   1.312   1.419   1.562   1.573
  1.590   1.608   1.613   1.658   1.667   1.689   1.757   1.844
  1.870   2.068   2.079   2.080   2.118   2.130   2.145   2.237
  2.257   2.278   2.282   2.322   2.355   2.386   2.408   2.580
  2.792   2.936   3.018   3.148   3.166   3.329   3.421   3.429
  3.483   4.527   4.716   4.783   4.899   6.260
 --------------------------------------------------------------
 
          Ground-State Mulliken Net Atomic Charges

     Atom                 Charge (a.u.)    Spin (a.u.)
  --------------------------------------------------------
      1 C                     1.314392       0.000000
      2 F                    -0.276413       0.000000
      3 F                    -0.271031       0.000000
      4 F                    -0.425901       0.000000
      5 F                    -0.341048       0.000000
  --------------------------------------------------------
  Sum of atomic charges =     0.000000
  Sum of spin   charges =     0.000000

 -----------------------------------------------------------------
                    Cartesian Multipole Moments
 -----------------------------------------------------------------
    Charge (ESU x 10^10)
                 0.0000
    Dipole Moment (Debye)
         X       0.5632      Y       0.9835      Z      -0.0035
       Tot       1.1333
    Quadrupole Moments (Debye-Ang)
        XX     -25.4462     XY       0.3428     YY     -20.6816
        XZ       0.0009     YZ       0.3838     ZZ     -24.9737
    Octopole Moments (Debye-Ang^2)
       XXX      51.6734    XXY     -58.6736    XYY      17.1924
       YYY    -160.3019    XXZ       0.0690    XYZ      -0.4793
       YYZ       0.8238    XZZ      18.2195    YZZ     -58.8828
       ZZZ       1.2639
    Hexadecapole Moments (Debye-Ang^3)
      XXXX    -147.8699   XXXY     119.1010   XXYY    -175.0632
      XYYY     120.5401   YYYY    -850.0165   XXXZ      -0.1113
      XXYZ       1.1048   XYYZ      -1.5240   YYYZ       0.7392
      XXZZ     -39.1988   XYZZ      42.6247   YYZZ    -165.2239
      XZZZ      -0.8880   YZZZ       4.3637   ZZZZ     -78.8048
 -----------------------------------------------------------------
Archival summary:
1\1\tp-linux1\SP\HF\6-31G*\41\thomas\ThuMar1614:19:222017ThuMar1614:19:222017\0\\#,HF,6-31G*,\\0,1\C\F,1,1.255\F,1,1.26106,2,115.181\F,1,1.32266,2,111.799,3,129.445,0\F,1,1.41932,2,105.348,3,-117.82,0\\HF=-435.629866\\@

 Total job time:  2.14s(wall), 9.80s(cpu) 
 Thu Mar 16 14:19:22 2017

        *************************************************************
        *                                                           *
        *  Thank you very much for using Q-Chem.  Have a nice day.  *
        *                                                           *
        *************************************************************


0 sent ACK to 0 
now end server 0 ... 
cleanup process ... done

Running Job 2 of 2 ddtraj1t4.inp
qchem ddtraj1t4.inp_16405.1 /scratch/qchem/qchem16405/ 1
/mnt/software/qchem/bin/mpi/mpirun_qchem -machinefile /mnt/software/qchem/bin/mpi/machines -np 1 /mnt/software/qchem/exe/qcprog.exe ddtraj1t4.inp_16405.1 /scratch/qchem/qchem16405/

Process 0 of 1 is on tp-linux1 - thread support 0
initial socket setup ...start
initial socket setup ...done 
now start server 0 ... 

cmd = ssh tp-linux1 /mnt/software/qchem/bin/get_hostid 1110538254 > /scratch/qchem/qchem16405/lic.dat
                  Welcome to Q-Chem
     A Quantum Leap Into The Future Of Chemistry


 Q-Chem 4.3, Q-Chem, Inc., Pleasanton, CA (2015)

 Y. Shao,  Z. Gan,  E. Epifanovsky,  A. T. B. Gilbert,  M. Wormit,  
 J. Kussmann,  A. W. Lange,  A. Behn,  J. Deng,  X. Feng,  D. Ghosh,  
 M. Goldey,  P. R. Horn,  L. D. Jacobson,  I. Kaliman,  R. Z. Khaliullin,  
 T. Kus,  A. Landau,  J. Liu,  E. I. Proynov,  Y. M. Rhee,  R. M. Richard,  
 M. A. Rohrdanz,  R. P. Steele,  E. J. Sundstrom,  H. L. Woodcock III,  
 P. M. Zimmerman,  D. Zuev,  B. Albrecht,  E. Alguire,  B. Austin,  
 S. A. Baeppler,  G. J. O. Beran,  Y. A. Bernard,  E. Berquist,  
 K. Brandhorst,  K. B. Bravaya,  S. T. Brown,  D. Casanova,  C.-M. Chang,  
 Y. Chen,  S. H. Chien,  K. D. Closser,  D. L. Crittenden,  M. Diedenhofen,  
 R. A. DiStasio Jr.,  H. Do,  A. D. Dutoi,  R. G. Edgar,  P.-T. Fang,  
 S. Fatehi,  Q. Feng,  L. Fusti-Molnar,  A. Ghysels,  
 A. Golubeva-Zadorozhnaya,  J. Gomes,  A. Gunina,  M. W. D. Hanson-Heine,  
 P. H. P. Harbach,  A. W. Hauser,  E. G. Hohenstein,  Z. C. Holden,  K. Hui,  
 T.-C. Jagau,  H. Ji,  B. Kaduk,  K. Khistyaev,  Jaehoon Kim,  Jihan Kim,  
 R. A. King,  P. Klunzinger,  D. Kosenkov,  T. Kowalczyk,  C. M. Krauter,  
 K. U. Lao,  A. Laurent,  K. V. Lawler,  S. Lehtola,  S. V. Levchenko,  
 C. Y. Lin,  Y.-S. Lin,  F. Liu,  E. Livshits,  R. C. Lochan,  A. Luenser,  
 P. Manohar,  S. F. Manzer,  S.-P. Mao,  N. Mardirossian,  A. V. Marenich,  
 L. A. Martinez-Martinez,  S. A. Maurer,  N. J. Mayhall,  K. Nanda,  
 C. M. Oana,  R. Olivares-Amaya,  D. P. O'Neill,  J. A. Parkhill,  
 T. M. Perrine,  R. Peverati,  P. A. Pieniazek,  F. Plasser,  A. Prociuk,  
 D. R. Rehn,  E. Rosta,  N. J. Russ,  N. Sergueev,  S. M. Sharada,  
 S. Sharma,  D. W. Small,  A. Sodt,  T. Stauch,  T. Stein,  D. Stuck,  
 Y.-C. Su,  A. J. W. Thom,  T. Tsuchimochi,  L. Vogt,  O. Vydrov,  T. Wang,  
 M. A. Watson,  J. Wenzel,  A. White,  C. F. Williams,  V. Vanovschi,  
 S. Yeganeh,  S. R. Yost,  Z.-Q. You,  I. Y. Zhang,  X. Zhang,  Y. Zhao,  
 B. R. Brooks,  G. K. L. Chan,  D. M. Chipman,  C. J. Cramer,  
 W. A. Goddard III,  M. S. Gordon,  W. J. Hehre,  A. Klamt,  
 H. F. Schaefer III,  M. W. Schmidt,  C. D. Sherrill,  D. G. Truhlar,  
 A. Warshel,  X. Xu,  A. Aspuru-Guzik,  R. Baer,  A. T. Bell,  N. A. Besley,  
 J.-D. Chai,  A. Dreuw,  B. D. Dunietz,  T. R. Furlani,  S. R. Gwaltney,  
 C.-P. Hsu,  Y. Jung,  J. Kong,  D. S. Lambrecht,  W. Liang,  C. Ochsenfeld,  
 V. A. Rassolov,  L. V. Slipchenko,  J. E. Subotnik,  T. Van Voorhis,  
 J. M. Herbert,  A. I. Krylov,  P. M. W. Gill,  M. Head-Gordon

 Contributors to earlier versions of Q-Chem not listed above: 
 R. D. Adamson,  J. Baker,  E. F. C. Byrd,  A. K. Chakraborty,  C.-L. Cheng,  
 H. Dachsel,  R. J. Doerksen,  G. Hawkins,  A. Heyden,  S. Hirata,  
 G. Kedziora,  F. J. Keil,  C. Kelley,  P. P. Korambath,  W. Kurlancheek,  
 A. M. Lee,  M. S. Lee,  D. Liotard,  I. Lotan,  P. E. Maslen,  N. Nair,  
 D. Neuhauser,  R. Olson,  B. Peters,  J. Ritchie,  N. E. Schultz,  
 N. Shenvi,  A. C. Simmonett,  K. S. Thanthiriwatte,  Q. Wu,  W. Zhang

 Please cite Q-Chem as follows:
 Y. Shao et al., Mol. Phys. 113, 184-215 (2015)
 DOI: 10.1080/00268976.2014.952696

 Q-Chem 4.3.0 for Intel X86 Linux

 Parts of Q-Chem use Armadillo 5.200.1 (Boston Tea Smuggler).
 http://arma.sourceforge.net/

 Q-Chem begins on Thu Mar 16 14:19:24 2017  

Host: 
0

     Scratch files written to /scratch/qchem/qchem16405//
 Nov1815 1189b_ 19540  19532 5443   
 Parallel job on  1  processors
Processing $rem in /mnt/software/qchem/config/preferences.
 MEM_TOTAL  2000 

Checking the input file for inconsistencies... 	...done.

--------------------------------------------------------------
User input:
--------------------------------------------------------------

$comment
job3 - cvs-adc(2) calculation
$end

$molecule
read
$end

$rem
mem_total 3000
mem_static 1500
sym_ignore true
scf_guess read
method cvs-adc(2)
basis 6-31G*
ee_singlets 20
cc_rest_occ 5                  !only excitations from the lowest N orbitals
unrestricted  true
max_scf_cycles 200
$end
--------------------------------------------------------------
 ----------------------------------------------------------------
             Standard Nuclear Orientation (Angstroms)
    I     Atom           X                Y                Z
 ----------------------------------------------------------------
    1      C      -0.6534860000     2.4251620000    -0.0045100000
    2      F       0.6051420000     2.3469440000    -0.0026290000
    3      F      -1.1369240000     3.2740340000     0.7833590000
    4      F      -1.1510120000     1.1728230000     0.4411230000
    5      F      -1.1416250000     2.5555180000    -1.2268670000
 ----------------------------------------------------------------
 Nuclear Repulsion Energy =   207.1984577473 hartrees
 There are       21 alpha and       21 beta electrons
 Requested basis set is 6-31G(d)
 There are 20 shells and 75 basis functions

 Total QAlloc Memory Limit   3000 MB
 Mega-Array Size      1467 MB
 MEM_STATIC part      1500 MB

                       Distance Matrix (Angstroms)
             C (  1)   F (  2)   F (  3)   F (  4)
   F (  2)  1.261058
   F (  3)  1.255003  2.124163
   F (  4)  1.419322  2.158600  2.128946
   F (  5)  1.322660  2.143235  2.134782  2.166593
 
 tim1(1): 
  0.000000000000000E+000
 tim1(2): 
  0.000000000000000E+000
 A cutoff of  1.0D-11 yielded    204 shell pairs
 There are      2979 function pairs
 
 -------------------------------------------------------
 OpenMP Integral Computing Module                       
 Release: version 1.0, May 2013, Q-Chem Inc. Pittsburgh 
 -------------------------------------------------------
 Integral Job Info:
 Integral job number is                      11
 Integral operator is                         1
 short-range coefficients                     0
 long-range coefficients              100000000
 Omega coefficients                           0
 if combine SR and LR in K                    0
 Integral screening is                        0
 Integral computing path is                   2
 max size of driver memory is            800000
 size of driver memory is                593474
 size of scratch memory is              2260544
 max col of scratch BK array               1296
 max len of scratch array in speh3          155
 max len of scratch index in speh4           18
 max int batch size is                      520
 min int batch size is                       52
 fixed nKL is                                52
 max L of basis functions is                  2
 order of int derivative is                   0
 number of shells is                         20
 number of basis is                          75
 number of cartesian basis is                75
 number of contracted shell pairs           204
 number of primitive shell pairs           1073
 maxK2 (contraction) of shell pair           36
 max number of K2 of shell pair               1
 max number of CS2 of shell pair             37
 max number of PS2 of shell pair            222
 mem total for path MDJ                   21832
 -------------------------------------------------------
 Smallest overlap matrix eigenvalue = 1.78E-03

 Scale SEOQF with 1.000000e+00/1.000000e-01/1.000000e+00

 Standard Electronic Orientation quadrupole field applied
 Nucleus-field energy     =     0.0000000104 hartrees
 Guess MOs from SCF MO coefficient file
 Reading MOs from coefficient file
 Reading MOs from coefficient file
 An unrestricted Hartree-Fock SCF calculation will be
 performed using Pulay DIIS extrapolation
 SCF converges when DIIS error is below 1.0E-08
 using 8 threads for integral computing 
 ---------------------------------------
  Cycle       Energy         DIIS Error
 ---------------------------------------
    1    -435.6298661015      1.01E-06
    2    -435.6298661022      4.40E-07
    3    -435.6298661025      2.28E-07
    4    -435.6298661025      2.23E-08
    5    -435.6298661025      6.69E-09 Convergence criterion met
 ---------------------------------------
 <S^2> = 0.0000
 SCF time:  CPU 5.90 s  wall 1.24 s
 SCF   energy in the final basis set = -435.6298661025
 Total energy in the final basis set = -435.6298661025
================================================================================
|                                                                              |
|                                 A D C  M A N                                 |
|                                                                              |
 ------------------------------------------------------------------------------ 
|                                                                              |
| Components:                                                                  |
|                                                                              |
| - libvmm - 1.2-release                                                       |
|   Authors:                                                                   |
|   Evgeny Epifanovsky, Ilya Kaliman                                           |
|                                                                              |
| - libtensor - 2.4-trunk                                                      |
|   Authors:                                                                   |
|   Evgeny Epifanovsky, Michael Wormit, Dmitry Zuev, Sam Manzer                |
|                                                                              |
| - libwfa - 1.1-beta                                                          |
|   Authors:                                                                   |
|   Felix Plasser, Stefanie Baeppler, Benjamin Thomitzni, Michael Wormit       |
|                                                                              |
| - libadc - 1.0-beta                                                          |
|   Authors:                                                                   |
|   Michael Wormit, Philipp H. P. Harbach, Caroline Krauter, Dirk Rehn,        |
|   Matthias Schneider, Jan Wenzel                                             |
|                                                                              |
| - adcman - 2.4-beta                                                          |
|   Authors:                                                                   |
|   Michael Wormit, Philipp H. P. Harbach, Caroline Krauter, Dirk Rehn,        |
|   Jan Wenzel, Andreas Dreuw                                                  |
|                                                                              |
| Authors of earlier versions of ADCMAN:                                       |
| Andreas Dreuw, Jan Hendrik Starcke, Dirk Rehn, Michael Wormit                |
|                                                                              |
================================================================================

 
 Alpha MOs, Unrestricted
 -- Occupied --                  
-26.401 -26.400 -26.374 -26.326 -11.612  -1.823  -1.721  -1.683
  1 A     2 A     3 A     4 A     5 A     6 A     7 A     8 A                  
 -1.611  -1.011  -0.906  -0.896  -0.878  -0.766  -0.757  -0.728
  9 A    10 A    11 A    12 A    13 A    14 A    15 A    16 A                  
 -0.711  -0.687  -0.667  -0.651  -0.647
 17 A    18 A    19 A    20 A    21 A                                          
 -- Virtual --                   
  0.356   0.416   0.440   0.474   0.657   0.683   0.696   0.705
 22 A    23 A    24 A    25 A    26 A    27 A    28 A    29 A                  
  1.280   1.286   1.294   1.296   1.312   1.419   1.562   1.573
 30 A    31 A    32 A    33 A    34 A    35 A    36 A    37 A                  
  1.590   1.608   1.613   1.658   1.667   1.689   1.757   1.844
 38 A    39 A    40 A    41 A    42 A    43 A    44 A    45 A                  
  1.870   2.068   2.079   2.080   2.118   2.130   2.145   2.237
 46 A    47 A    48 A    49 A    50 A    51 A    52 A    53 A                  
  2.257   2.278   2.282   2.322   2.355   2.386   2.408   2.580
 54 A    55 A    56 A    57 A    58 A    59 A    60 A    61 A                  
  2.792   2.936   3.018   3.148   3.166   3.329   3.421   3.429
 62 A    63 A    64 A    65 A    66 A    67 A    68 A    69 A                  
  3.483   4.527   4.716   4.783   4.899   6.260
 70 A    71 A    72 A    73 A    74 A    75 A                                  
 
 Beta MOs, Unrestricted
 -- Occupied --                  
-26.401 -26.400 -26.374 -26.326 -11.612  -1.823  -1.721  -1.683
  1 A     2 A     3 A     4 A     5 A     6 A     7 A     8 A                  
 -1.611  -1.011  -0.906  -0.896  -0.878  -0.766  -0.757  -0.728
  9 A    10 A    11 A    12 A    13 A    14 A    15 A    16 A                  
 -0.711  -0.687  -0.667  -0.651  -0.647
 17 A    18 A    19 A    20 A    21 A                                          
 -- Virtual --                   
  0.356   0.416   0.440   0.474   0.657   0.683   0.696   0.705
 22 A    23 A    24 A    25 A    26 A    27 A    28 A    29 A                  
  1.280   1.286   1.294   1.296   1.312   1.419   1.562   1.573
 30 A    31 A    32 A    33 A    34 A    35 A    36 A    37 A                  
  1.590   1.608   1.613   1.658   1.667   1.689   1.757   1.844
 38 A    39 A    40 A    41 A    42 A    43 A    44 A    45 A                  
  1.870   2.068   2.079   2.080   2.118   2.130   2.145   2.237
 46 A    47 A    48 A    49 A    50 A    51 A    52 A    53 A                  
  2.257   2.278   2.282   2.322   2.355   2.386   2.408   2.580
 54 A    55 A    56 A    57 A    58 A    59 A    60 A    61 A                  
  2.792   2.936   3.018   3.148   3.166   3.329   3.421   3.429
 62 A    63 A    64 A    65 A    66 A    67 A    68 A    69 A                  
  3.483   4.527   4.716   4.783   4.899   6.260
 70 A    71 A    72 A    73 A    74 A    75 A                                  
 

--------------------------------------------------------------------------------
                                   HF Summary                                   
--------------------------------------------------------------------------------
  Energy:                                                 -435.6298661025 a.u.
  Dip. moment [a.u.]:                  [ -55.667428,  186.119333,   -0.135061]
  Total dipole [Debye]:                                             493.775066
  <r^2> [a.u.]:                        [ 165.848748,  917.038795,   92.921148]
  Total <r^2> [a.u.]:                                              1175.808692
--------------------------------------------------------------------------------

--------------------------------------------------------------------------------
                                 MP(2) Summary                                  
--------------------------------------------------------------------------------
  Energy contribution:                                      -0.8018851422 a.u.
  Total energy:                                           -436.4317512447 a.u.
  Dip. moment [a.u.]:                  [ -55.643991,  186.159622,   -0.138089]
  Total dipole [Debye]:                                             493.856118
  <r^2> [a.u.]:                        [ 165.707967,  917.313647,   92.835030]
  Total <r^2> [a.u.]:                                              1175.856644
--------------------------------------------------------------------------------
  Starting Davidson ... 
--------------------------------------------------------------------------------
   It NVec Conv  Avg. Norm  Max. Norm  Conv. states           Remark
--------------------------------------------------------------------------------
        20    0  2.104e-01  1.044e+00 11.1899 n n n n n n n n Guess.
    1   40    0  5.522e-02  6.789e-01 11.0060 n n n n n n n n 
    2   60    0  9.274e-03  1.040e-01 11.0043 n n n n n n n n 
    3   80    0  3.139e-03  3.464e-02 11.0042 n n n n n n n n 
    4  100    0  2.304e-03  2.755e-02 11.0042 n n n n n n n n 
    5   40    0  1.236e-03  1.648e-02 11.0042 n n n n n n n n Subspace collapsed.
    6   60    0  1.582e-03  2.255e-02 11.0042 n n n n n n n n 
    7   80    0  1.061e-03  1.488e-02 11.0042 n n n n n n n n 
    8  100    1  8.460e-04  1.265e-02 11.0042 y n n n n n n n 
    9   40    6  4.076e-04  6.234e-03 11.0042 y y y y y n y n Subspace collapsed.
   10   60    7  3.546e-04  5.412e-03 11.0042 y y y y y y y n 
   11   80   10  2.015e-04  3.153e-03 11.0042 y y y y y y y y 
   12  100   15  1.608e-04  2.503e-03 11.0042 y y y y y y y y 
   13   40   15  1.325e-04  2.164e-03 11.0042 y y y y y y y y Subspace collapsed.
   14   60   15  1.490e-04  2.332e-03 11.0042 y y y y y y y y 
   15   80   15  1.033e-04  1.658e-03 11.0042 y y y y y y y y 
   16  100   16  9.320e-05  1.473e-03 11.0042 y y y y y y y y 
   17   40   16  4.902e-05  8.442e-04 11.0042 y y y y y y y y Subspace collapsed.
   18   58   16  4.728e-05  7.805e-04 11.0042 y y y y y y y y 
   19   60   16  4.703e-05  7.744e-04 11.0042 y y y y y y y y 
   20   61   16  4.707e-05  7.751e-04 11.0042 y y y y y y y y 
   21   61   16  4.707e-05  7.751e-04 11.0042 y y y y y y y y 
   22   81   16  2.531e-05  4.263e-04 11.0042 y y y y y y y y 
   23   94   16  2.033e-05  3.553e-04 11.0042 y y y y y y y y 
   24  100   16  2.044e-05  3.602e-04 11.0042 y y y y y y y y 
   25   32   16  1.677e-05  2.893e-04 11.0042 y y y y y y y y Subspace collapsed.
   26   44   16  2.017e-05  3.389e-04 11.0042 y y y y y y y y 
   27   56   16  1.322e-05  2.286e-04 11.0042 y y y y y y y y 
   28   56   16  1.322e-05  2.286e-04 11.0042 y y y y y y y y 
   29   73   16  1.265e-05  2.174e-04 11.0042 y y y y y y y y 
   30   73   16  1.265e-05  2.174e-04 11.0042 y y y y y y y y 
   31   73   16  1.265e-05  2.174e-04 11.0042 y y y y y y y y 
   32   93   16  6.420e-06  1.075e-04 11.0042 y y y y y y y y 
   33   93   16  6.420e-06  1.075e-04 11.0042 y y y y y y y y 
   34   93   16  6.420e-06  1.075e-04 11.0042 y y y y y y y y 
   35   97   16  6.326e-06  1.056e-04 11.0042 y y y y y y y y 
   36   97   16  6.326e-06  1.056e-04 11.0042 y y y y y y y y 
   37   97   16  6.326e-06  1.056e-04 11.0042 y y y y y y y y 
   38  100   16  6.121e-06  1.012e-04 11.0042 y y y y y y y y 
   39   21   16  6.117e-06  1.011e-04 11.0042 y y y y y y y y Subspace collapsed.
   40   22   16  6.105e-06  1.010e-04 11.0042 y y y y y y y y 
   41   31   16  3.025e-06  4.755e-05 11.0042 y y y y y y y y 
   42   40   16  1.868e-06  2.651e-05 11.0042 y y y y y y y y 
   43   41   16  1.868e-06  2.650e-05 11.0042 y y y y y y y y 
   44   42   16  1.868e-06  2.651e-05 11.0042 y y y y y y y y 
   45   43   16  1.870e-06  2.651e-05 11.0042 y y y y y y y y 
   46   44   16  1.876e-06  2.651e-05 11.0042 y y y y y y y y 
   47   45   16  1.873e-06  2.643e-05 11.0042 y y y y y y y y 
   48   46   16  1.871e-06  2.639e-05 11.0042 y y y y y y y y 
   49   47   16  1.873e-06  2.642e-05 11.0042 y y y y y y y y 
   50   47   16  1.873e-06  2.642e-05 11.0042 y y y y y y y y 
   51   47   16  1.873e-06  2.642e-05 11.0042 y y y y y y y y 
   52   67   16  1.168e-06  1.594e-05 11.0042 y y y y y y y y 
   53   73   16  8.209e-07  1.227e-05 11.0042 y y y y y y y y 
   54   73   16  8.209e-07  1.227e-05 11.0042 y y y y y y y y 
   55   73   16  8.209e-07  1.227e-05 11.0042 y y y y y y y y 
   56   76   16  8.279e-07  1.256e-05 11.0042 y y y y y y y y 
   57   76   16  8.279e-07  1.256e-05 11.0042 y y y y y y y y 
   58   76   16  8.279e-07  1.256e-05 11.0042 y y y y y y y y 
   59   79   16  8.303e-07  1.256e-05 11.0042 y y y y y y y y 
--------------------------------------------------------------------------------
  Davidson Summary: 
 ------------------------------------------------------------
  State  0: excitation energy =  11.0042 a.u.   (converged)
  State  1: excitation energy =  11.0820 a.u.   (converged)
  State  2: excitation energy =  11.0860 a.u.   (converged)
  State  3: excitation energy =  11.1409 a.u.   (converged)
  State  4: excitation energy =  11.1678 a.u.   (converged)
  State  5: excitation energy =  11.1693 a.u.   (converged)
  State  6: excitation energy =  11.2205 a.u.   (converged)
  State  7: excitation energy =  11.2579 a.u.   (converged)
  State  8: excitation energy =  11.4918 a.u.   (converged)
  State  9: excitation energy =  11.5215 a.u.   (converged)
  State 10: excitation energy =  11.5291 a.u.   (converged)
  State 11: excitation energy =  11.5361 a.u.   (converged)
  State 12: excitation energy =  11.5439 a.u.   (converged)
  State 13: excitation energy =  11.5516 a.u.   (converged)
  State 14: excitation energy =  11.5626 a.u.   (converged)
  State 15: excitation energy =  11.5787 a.u.   (converged)
  State 16: excitation energy =  12.1348 a.u.   (not converged)
  State 17: excitation energy =  12.1359 a.u.   (not converged)
  State 18: excitation energy =  12.1383 a.u.   (not converged)
  State 19: excitation energy =  12.1392 a.u.   (not converged)
 ------------------------------------------------------------


--------------------------------------------------------------------------------
                             Excited State Summary
--------------------------------------------------------------------------------

  Excited state  1 (A)                                             [converged]
  ----------------------------------------------------------------------------
  Term symbol:  2 (-) A                                     R^2 =  1.36526e-12

  Total energy:                                           -425.4275045992 a.u.
  Excitation energy:                                             299.440780 eV

  Osc. strength:                                                      0.000000
  Trans. dip. moment [a.u.]:           [  -0.000000,   -0.000000,    0.000000]
  <i|r^2|0> [a.u.]:                    [   0.000000,   -0.000000,    0.000000]

  V1^2 = 0.9559, V2^2 = 0.0441

  Important amplitudes:
     core i     occ j      vir a      vir b          v   
    ------------------------------------------------------
     5 (A) B              22 (A) B                -0.6262
     5 (A) A              22 (A) A                 0.6262
    ------------------------------------------------------
  ----------------------------------------------------------------------------


  Excited state  2 (A)                                             [converged]
  ----------------------------------------------------------------------------
  Term symbol:  3 (-) A                                     R^2 =  2.07264e-12

  Total energy:                                           -425.3497754019 a.u.
  Excitation energy:                                             301.555899 eV

  Osc. strength:                                                      0.120323
  Trans. dip. moment [a.u.]:           [   0.034468,    0.111554,   -0.051516]
  <i|r^2|0> [a.u.]:                    [  -0.090479,    1.022755,   -0.005371]

  V1^2 = 0.9496, V2^2 = 0.0504

  Important amplitudes:
     core i     occ j      vir a      vir b          v   
    ------------------------------------------------------
     5 (A) A              22 (A) A                 0.6447
     5 (A) B              22 (A) B                 0.6447
    ------------------------------------------------------
  ----------------------------------------------------------------------------


  Excited state  3 (A)                                             [converged]
  ----------------------------------------------------------------------------
  Term symbol:  4 (-) A                                     R^2 =  3.09973e-12

  Total energy:                                           -425.3457790127 a.u.
  Excitation energy:                                             301.664646 eV

  Osc. strength:                                                      0.000000
  Trans. dip. moment [a.u.]:           [  -0.000000,   -0.000000,   -0.000000]
  <i|r^2|0> [a.u.]:                    [   0.000000,   -0.000000,    0.000000]

  V1^2 = 0.9542, V2^2 = 0.0458

  Important amplitudes:
     core i     occ j      vir a      vir b          v   
    ------------------------------------------------------
     5 (A) B              24 (A) B                -0.4979
     5 (A) A              24 (A) A                 0.4979
    ------------------------------------------------------
  ----------------------------------------------------------------------------


  Excited state  4 (A)                                             [converged]
  ----------------------------------------------------------------------------
  Term symbol:  5 (-) A                                     R^2 =  9.84287e-13

  Total energy:                                           -425.2908151780 a.u.
  Excitation energy:                                             303.160288 eV

  Osc. strength:                                                      0.000000
  Trans. dip. moment [a.u.]:           [   0.000000,   -0.000000,   -0.000000]
  <i|r^2|0> [a.u.]:                    [  -0.000000,   -0.000000,    0.000000]

  V1^2 = 0.9543, V2^2 = 0.0457

  Important amplitudes:
     core i     occ j      vir a      vir b          v   
    ------------------------------------------------------
     5 (A) B              25 (A) B                 0.5265
     5 (A) A              25 (A) A                -0.5265
    ------------------------------------------------------
  ----------------------------------------------------------------------------


  Excited state  5 (A)                                             [converged]
  ----------------------------------------------------------------------------
  Term symbol:  6 (-) A                                     R^2 =  6.37196e-12

  Total energy:                                           -425.2639663967 a.u.
  Excitation energy:                                             303.890881 eV

  Osc. strength:                                                      0.117366
  Trans. dip. moment [a.u.]:           [  -0.060996,   -0.027196,   -0.106320]
  <i|r^2|0> [a.u.]:                    [   0.160683,   -0.240818,    0.003632]

  V1^2 = 0.9472, V2^2 = 0.0528

  Important amplitudes:
     core i     occ j      vir a      vir b          v   
    ------------------------------------------------------
     5 (A) A              24 (A) A                -0.5402
     5 (A) B              24 (A) B                -0.5402
    ------------------------------------------------------
  ----------------------------------------------------------------------------


  Excited state  6 (A)                                             [converged]
  ----------------------------------------------------------------------------
  Term symbol:  7 (-) A                                     R^2 =  6.39606e-13

  Total energy:                                           -425.2624284253 a.u.
  Excitation energy:                                             303.932731 eV

  Osc. strength:                                                      0.000000
  Trans. dip. moment [a.u.]:           [  -0.000000,   -0.000000,   -0.000000]
  <i|r^2|0> [a.u.]:                    [   0.000000,   -0.000000,   -0.000000]

  V1^2 = 0.9355, V2^2 = 0.0645

  Important amplitudes:
     core i     occ j      vir a      vir b          v   
    ------------------------------------------------------
     5 (A) A              23 (A) A                 0.4816
     5 (A) B              23 (A) B                -0.4816
    ------------------------------------------------------
  ----------------------------------------------------------------------------


  Excited state  7 (A)                                             [converged]
  ----------------------------------------------------------------------------
  Term symbol:  8 (-) A                                     R^2 =  3.56152e-12

  Total energy:                                           -425.2112471033 a.u.
  Excitation energy:                                             305.325446 eV

  Osc. strength:                                                      0.117914
  Trans. dip. moment [a.u.]:           [   0.106447,   -0.050921,   -0.042887]
  <i|r^2|0> [a.u.]:                    [  -0.266569,   -0.459197,    0.007470]

  V1^2 = 0.9460, V2^2 = 0.0540

  Important amplitudes:
     core i     occ j      vir a      vir b          v   
    ------------------------------------------------------
     5 (A) A              25 (A) A                 0.5667
     5 (A) B              25 (A) B                 0.5667
    ------------------------------------------------------
  ----------------------------------------------------------------------------


  Excited state  8 (A)                                             [converged]
  ----------------------------------------------------------------------------
  Term symbol:  9 (-) A                                     R^2 =  3.26079e-12

  Total energy:                                           -425.1738421071 a.u.
  Excitation energy:                                             306.343287 eV

  Osc. strength:                                                      0.007407
  Trans. dip. moment [a.u.]:           [  -0.001714,    0.018661,    0.025215]
  <i|r^2|0> [a.u.]:                    [   0.027079,    0.196363,    0.024046]

  V1^2 = 0.9177, V2^2 = 0.0823

  Important amplitudes:
     core i     occ j      vir a      vir b          v   
    ------------------------------------------------------
     5 (A) A              23 (A) A                 0.5498
     5 (A) B              23 (A) B                 0.5498
    ------------------------------------------------------
  ----------------------------------------------------------------------------


  Excited state  9 (A)                                             [converged]
  ----------------------------------------------------------------------------
  Term symbol:  10 (-) A                                    R^2 =  2.05813e-13

  Total energy:                                           -424.9399293968 a.u.
  Excitation energy:                                             312.708376 eV

  Osc. strength:                                                      0.000000
  Trans. dip. moment [a.u.]:           [   0.000000,    0.000000,   -0.000000]
  <i|r^2|0> [a.u.]:                    [  -0.000000,    0.000000,    0.000000]

  V1^2 = 0.8985, V2^2 = 0.1015

  Important amplitudes:
     core i     occ j      vir a      vir b          v   
    ------------------------------------------------------
     5 (A) B              26 (A) B                -0.3910
     5 (A) A              26 (A) A                 0.3910
    ------------------------------------------------------
  ----------------------------------------------------------------------------


  Excited state 10 (A)                                             [converged]
  ----------------------------------------------------------------------------
  Term symbol:  11 (-) A                                    R^2 =  2.24592e-12

  Total energy:                                           -424.9102315427 a.u.
  Excitation energy:                                             313.516496 eV

  Osc. strength:                                                      0.020338
  Trans. dip. moment [a.u.]:           [   0.021519,    0.046176,   -0.007249]
  <i|r^2|0> [a.u.]:                    [  -0.038350,    0.438689,    0.015782]

  V1^2 = 0.9021, V2^2 = 0.0979

  Important amplitudes:
     core i     occ j      vir a      vir b          v   
    ------------------------------------------------------
     5 (A) A              26 (A) A                -0.4725
     5 (A) B              26 (A) B                -0.4725
    ------------------------------------------------------
  ----------------------------------------------------------------------------


  Excited state 11 (A)                                             [converged]
  ----------------------------------------------------------------------------
  Term symbol:  12 (-) A                                    R^2 =  1.38599e-12

  Total energy:                                           -424.9026291111 a.u.
  Excitation energy:                                             313.723368 eV

  Osc. strength:                                                      0.000000
  Trans. dip. moment [a.u.]:           [   0.000000,   -0.000000,    0.000000]
  <i|r^2|0> [a.u.]:                    [  -0.000000,   -0.000000,    0.000000]

  V1^2 = 0.8890, V2^2 = 0.1110

  Important amplitudes:
     core i     occ j      vir a      vir b          v   
    ------------------------------------------------------
     5 (A) B              26 (A) B                 0.4112
     5 (A) A              26 (A) A                -0.4112
    ------------------------------------------------------
  ----------------------------------------------------------------------------


  Excited state 12 (A)                                             [converged]
  ----------------------------------------------------------------------------
  Term symbol:  13 (-) A                                    R^2 =  3.29632e-13

  Total energy:                                           -424.8956566100 a.u.
  Excitation energy:                                             313.913100 eV

  Osc. strength:                                                      0.000000
  Trans. dip. moment [a.u.]:           [  -0.000000,    0.000000,   -0.000000]
  <i|r^2|0> [a.u.]:                    [   0.000000,    0.000000,   -0.000000]

  V1^2 = 0.8880, V2^2 = 0.1120

  Important amplitudes:
     core i     occ j      vir a      vir b          v   
    ------------------------------------------------------
     5 (A) B              29 (A) B                -0.5126
     5 (A) A              29 (A) A                 0.5126
    ------------------------------------------------------
  ----------------------------------------------------------------------------


  Excited state 13 (A)                                             [converged]
  ----------------------------------------------------------------------------
  Term symbol:  14 (-) A                                    R^2 =  9.20226e-13

  Total energy:                                           -424.8878392634 a.u.
  Excitation energy:                                             314.125821 eV

  Osc. strength:                                                      0.026315
  Trans. dip. moment [a.u.]:           [   0.020370,   -0.003404,    0.054707]
  <i|r^2|0> [a.u.]:                    [  -0.047143,   -0.027287,    0.002812]

  V1^2 = 0.8918, V2^2 = 0.1082

  Important amplitudes:
     core i     occ j      vir a      vir b          v   
    ------------------------------------------------------
     5 (A) A              27 (A) A                -0.4142
     5 (A) B              27 (A) B                -0.4142
    ------------------------------------------------------
  ----------------------------------------------------------------------------


  Excited state 14 (A)                                             [converged]
  ----------------------------------------------------------------------------
  Term symbol:  15 (-) A                                    R^2 =  2.78126e-13

  Total energy:                                           -424.8801070951 a.u.
  Excitation energy:                                             314.336224 eV

  Osc. strength:                                                      0.030032
  Trans. dip. moment [a.u.]:           [   0.050164,   -0.030000,   -0.021983]
  <i|r^2|0> [a.u.]:                    [  -0.124304,   -0.273940,    0.001704]

  V1^2 = 0.8913, V2^2 = 0.1087

  Important amplitudes:
     core i     occ j      vir a      vir b          v   
    ------------------------------------------------------
     5 (A) A              29 (A) A                 0.5531
     5 (A) B              29 (A) B                 0.5531
    ------------------------------------------------------
  ----------------------------------------------------------------------------


  Excited state 15 (A)                                             [converged]
  ----------------------------------------------------------------------------
  Term symbol:  16 (-) A                                    R^2 =  6.87822e-13

  Total energy:                                           -424.8691093333 a.u.
  Excitation energy:                                             314.635488 eV

  Osc. strength:                                                      0.000000
  Trans. dip. moment [a.u.]:           [   0.000000,    0.000000,    0.000000]
  <i|r^2|0> [a.u.]:                    [  -0.000000,    0.000000,   -0.000000]

  V1^2 = 0.8888, V2^2 = 0.1112

  Important amplitudes:
     core i     occ j      vir a      vir b          v   
    ------------------------------------------------------
     5 (A) B              27 (A) B                -0.4278
     5 (A) A              27 (A) A                 0.4278
    ------------------------------------------------------
  ----------------------------------------------------------------------------


  Excited state 16 (A)                                             [converged]
  ----------------------------------------------------------------------------
  Term symbol:  17 (-) A                                    R^2 =  3.20782e-12

  Total energy:                                           -424.8530414260 a.u.
  Excitation energy:                                             315.072718 eV

  Osc. strength:                                                      0.008442
  Trans. dip. moment [a.u.]:           [   0.018244,    0.027474,    0.002451]
  <i|r^2|0> [a.u.]:                    [  -0.058280,    0.237897,   -0.013359]

  V1^2 = 0.8919, V2^2 = 0.1081

  Important amplitudes:
     core i     occ j      vir a      vir b          v   
    ------------------------------------------------------
     5 (A) A              28 (A) A                -0.4650
     5 (A) B              28 (A) B                -0.4650
    ------------------------------------------------------
  ----------------------------------------------------------------------------


  Excited state 17 (A)                                         [not converged]
  ----------------------------------------------------------------------------
  Term symbol:  18 (-) A                                    R^2 =  1.25553e-05

  Total energy:                                           -424.2969177606 a.u.
  Excitation energy:                                             330.205612 eV


  V1^2 = 0.8858, V2^2 = 0.1142

  Important amplitudes:
     core i     occ j      vir a      vir b          v   
    ------------------------------------------------------
     5 (A) A              32 (A) A                -0.4097
     5 (A) B              32 (A) B                 0.4097
    ------------------------------------------------------
  ----------------------------------------------------------------------------


  Excited state 18 (A)                                         [not converged]
  ----------------------------------------------------------------------------
  Term symbol:  19 (-) A                                    R^2 =  9.41279e-06

  Total energy:                                           -424.2958860497 a.u.
  Excitation energy:                                             330.233687 eV


  V1^2 = 0.8856, V2^2 = 0.1144

  Important amplitudes:
     core i     occ j      vir a      vir b          v   
    ------------------------------------------------------
     5 (A) B              32 (A) B                 0.4189
     5 (A) A              32 (A) A                 0.4189
    ------------------------------------------------------
  ----------------------------------------------------------------------------


  Excited state 19 (A)                                         [not converged]
  ----------------------------------------------------------------------------
  Term symbol:  20 (-) A                                    R^2 =  4.21165e-06

  Total energy:                                           -424.2934286037 a.u.
  Excitation energy:                                             330.300557 eV


  V1^2 = 0.8848, V2^2 = 0.1152

  Important amplitudes:
     core i     occ j      vir a      vir b          v   
    ------------------------------------------------------
     5 (A) B              32 (A) B                -0.4676
     5 (A) A              32 (A) A                 0.4676
    ------------------------------------------------------
  ----------------------------------------------------------------------------


  Excited state 20 (A)                                         [not converged]
  ----------------------------------------------------------------------------
  Term symbol:  21 (-) A                                    R^2 =  3.43175e-06

  Total energy:                                           -424.2925590945 a.u.
  Excitation energy:                                             330.324218 eV


  V1^2 = 0.8847, V2^2 = 0.1153

  Important amplitudes:
     core i     occ j      vir a      vir b          v   
    ------------------------------------------------------
     5 (A) A              32 (A) A                -0.4615
     5 (A) B              32 (A) B                -0.4615
    ------------------------------------------------------
  ----------------------------------------------------------------------------


--------------------------------------------------------------------------------
  Time of ADC calculation:  CPU 3075.84 s  wall 1881.10 s
================================================================================
 
 --------------------------------------------------------------
 
                    Orbital Energies (a.u.)
 --------------------------------------------------------------
 
 Alpha MOs
 -- Occupied --
-26.401 -26.400 -26.374 -26.326 -11.612  -1.823  -1.721  -1.683
 -1.611  -1.011  -0.906  -0.896  -0.878  -0.766  -0.757  -0.728
 -0.711  -0.687  -0.667  -0.651  -0.647
 -- Virtual --
  0.356   0.416   0.440   0.474   0.657   0.683   0.696   0.705
  1.280   1.286   1.294   1.296   1.312   1.419   1.562   1.573
  1.590   1.608   1.613   1.658   1.667   1.689   1.757   1.844
  1.870   2.068   2.079   2.080   2.118   2.130   2.145   2.237
  2.257   2.278   2.282   2.322   2.355   2.386   2.408   2.580
  2.792   2.936   3.018   3.148   3.166   3.329   3.421   3.429
  3.483   4.527   4.716   4.783   4.899   6.260
 
 Beta MOs
 -- Occupied --
-26.401 -26.400 -26.374 -26.326 -11.612  -1.823  -1.721  -1.683
 -1.611  -1.011  -0.906  -0.896  -0.878  -0.766  -0.757  -0.728
 -0.711  -0.687  -0.667  -0.651  -0.647
 -- Virtual --
  0.356   0.416   0.440   0.474   0.657   0.683   0.696   0.705
  1.280   1.286   1.294   1.296   1.312   1.419   1.562   1.573
  1.590   1.608   1.613   1.658   1.667   1.689   1.757   1.844
  1.870   2.068   2.079   2.080   2.118   2.130   2.145   2.237
  2.257   2.278   2.282   2.322   2.355   2.386   2.408   2.580
  2.792   2.936   3.018   3.148   3.166   3.329   3.421   3.429
  3.483   4.527   4.716   4.783   4.899   6.260
 --------------------------------------------------------------
 
          Ground-State Mulliken Net Atomic Charges

     Atom                 Charge (a.u.)    Spin (a.u.)
  --------------------------------------------------------
      1 C                     1.314402       0.000000
      2 F                    -0.276422       0.000000
      3 F                    -0.271041       0.000000
      4 F                    -0.425885       0.000000
      5 F                    -0.341053       0.000000
  --------------------------------------------------------
  Sum of atomic charges =     0.000000
  Sum of spin   charges =     0.000000

 -----------------------------------------------------------------
                    Cartesian Multipole Moments
 -----------------------------------------------------------------
    Charge (ESU x 10^10)
                 0.0000
    Dipole Moment (Debye)
         X       0.5632      Y       0.9834      Z      -0.0034
       Tot       1.1332
    Quadrupole Moments (Debye-Ang)
        XX     -25.4462     XY       0.3428     YY     -20.6820
        XZ       0.0009     YZ       0.3838     ZZ     -24.9738
    Octopole Moments (Debye-Ang^2)
       XXX      51.6734    XXY     -58.6738    XYY      17.1927
       YYY    -160.3034    XXZ       0.0691    XYZ      -0.4794
       YYZ       0.8237    XZZ      18.2195    YZZ     -58.8829
       ZZZ       1.2640
    Hexadecapole Moments (Debye-Ang^3)
      XXXX    -147.8699   XXXY     119.1011   XXYY    -175.0639
      XYYY     120.5412   YYYY    -850.0215   XXXZ      -0.1115
      XXYZ       1.1049   XYYZ      -1.5240   YYYZ       0.7388
      XXZZ     -39.1989   XYZZ      42.6249   YYZZ    -165.2246
      XZZZ      -0.8881   YZZZ       4.3638   ZZZZ     -78.8050
 -----------------------------------------------------------------
Archival summary:
1\1\tp-linux1\SP\HF\6-31G*\41\thomas\ThuMar1614:50:482017ThuMar1614:50:482017\0\\#,HF,6-31G*,\\0,1\C\F,1,1.255\F,1,1.26106,2,115.181\F,1,1.32266,2,111.799,3,129.445,0\F,1,1.41932,2,105.348,3,-117.82,0\\HF=-435.629866\\@

 Total job time:  1884.31s(wall), 3085.50s(cpu) 
 Thu Mar 16 14:50:48 2017

        *************************************************************
        *                                                           *
        *  Thank you very much for using Q-Chem.  Have a nice day.  *
        *                                                           *
        *************************************************************


0 sent ACK to 0 
now end server 0 ... 
cleanup process ... done
