
Running Job 1 of 2 ddtraj1t44.inp
qchem ddtraj1t44.inp_10133.0 /scratch/qchem/qchem10133/ 1
/mnt/software/qchem/bin/mpi/mpirun_qchem -machinefile /mnt/software/qchem/bin/mpi/machines -np 1 /mnt/software/qchem/exe/qcprog.exe ddtraj1t44.inp_10133.0 /scratch/qchem/qchem10133/

Process 0 of 1 is on tp-linux1 - thread support 0
initial socket setup ...start
initial socket setup ...done 
now start server 0 ... 

cmd = ssh tp-linux1 /mnt/software/qchem/bin/get_hostid 1652796959 > /scratch/qchem/qchem10133/lic.dat
                  Welcome to Q-Chem
     A Quantum Leap Into The Future Of Chemistry


 Q-Chem 4.3, Q-Chem, Inc., Pleasanton, CA (2015)

 Y. Shao,  Z. Gan,  E. Epifanovsky,  A. T. B. Gilbert,  M. Wormit,  
 J. Kussmann,  A. W. Lange,  A. Behn,  J. Deng,  X. Feng,  D. Ghosh,  
 M. Goldey,  P. R. Horn,  L. D. Jacobson,  I. Kaliman,  R. Z. Khaliullin,  
 T. Kus,  A. Landau,  J. Liu,  E. I. Proynov,  Y. M. Rhee,  R. M. Richard,  
 M. A. Rohrdanz,  R. P. Steele,  E. J. Sundstrom,  H. L. Woodcock III,  
 P. M. Zimmerman,  D. Zuev,  B. Albrecht,  E. Alguire,  B. Austin,  
 S. A. Baeppler,  G. J. O. Beran,  Y. A. Bernard,  E. Berquist,  
 K. Brandhorst,  K. B. Bravaya,  S. T. Brown,  D. Casanova,  C.-M. Chang,  
 Y. Chen,  S. H. Chien,  K. D. Closser,  D. L. Crittenden,  M. Diedenhofen,  
 R. A. DiStasio Jr.,  H. Do,  A. D. Dutoi,  R. G. Edgar,  P.-T. Fang,  
 S. Fatehi,  Q. Feng,  L. Fusti-Molnar,  A. Ghysels,  
 A. Golubeva-Zadorozhnaya,  J. Gomes,  A. Gunina,  M. W. D. Hanson-Heine,  
 P. H. P. Harbach,  A. W. Hauser,  E. G. Hohenstein,  Z. C. Holden,  K. Hui,  
 T.-C. Jagau,  H. Ji,  B. Kaduk,  K. Khistyaev,  Jaehoon Kim,  Jihan Kim,  
 R. A. King,  P. Klunzinger,  D. Kosenkov,  T. Kowalczyk,  C. M. Krauter,  
 K. U. Lao,  A. Laurent,  K. V. Lawler,  S. Lehtola,  S. V. Levchenko,  
 C. Y. Lin,  Y.-S. Lin,  F. Liu,  E. Livshits,  R. C. Lochan,  A. Luenser,  
 P. Manohar,  S. F. Manzer,  S.-P. Mao,  N. Mardirossian,  A. V. Marenich,  
 L. A. Martinez-Martinez,  S. A. Maurer,  N. J. Mayhall,  K. Nanda,  
 C. M. Oana,  R. Olivares-Amaya,  D. P. O'Neill,  J. A. Parkhill,  
 T. M. Perrine,  R. Peverati,  P. A. Pieniazek,  F. Plasser,  A. Prociuk,  
 D. R. Rehn,  E. Rosta,  N. J. Russ,  N. Sergueev,  S. M. Sharada,  
 S. Sharma,  D. W. Small,  A. Sodt,  T. Stauch,  T. Stein,  D. Stuck,  
 Y.-C. Su,  A. J. W. Thom,  T. Tsuchimochi,  L. Vogt,  O. Vydrov,  T. Wang,  
 M. A. Watson,  J. Wenzel,  A. White,  C. F. Williams,  V. Vanovschi,  
 S. Yeganeh,  S. R. Yost,  Z.-Q. You,  I. Y. Zhang,  X. Zhang,  Y. Zhao,  
 B. R. Brooks,  G. K. L. Chan,  D. M. Chipman,  C. J. Cramer,  
 W. A. Goddard III,  M. S. Gordon,  W. J. Hehre,  A. Klamt,  
 H. F. Schaefer III,  M. W. Schmidt,  C. D. Sherrill,  D. G. Truhlar,  
 A. Warshel,  X. Xu,  A. Aspuru-Guzik,  R. Baer,  A. T. Bell,  N. A. Besley,  
 J.-D. Chai,  A. Dreuw,  B. D. Dunietz,  T. R. Furlani,  S. R. Gwaltney,  
 C.-P. Hsu,  Y. Jung,  J. Kong,  D. S. Lambrecht,  W. Liang,  C. Ochsenfeld,  
 V. A. Rassolov,  L. V. Slipchenko,  J. E. Subotnik,  T. Van Voorhis,  
 J. M. Herbert,  A. I. Krylov,  P. M. W. Gill,  M. Head-Gordon

 Contributors to earlier versions of Q-Chem not listed above: 
 R. D. Adamson,  J. Baker,  E. F. C. Byrd,  A. K. Chakraborty,  C.-L. Cheng,  
 H. Dachsel,  R. J. Doerksen,  G. Hawkins,  A. Heyden,  S. Hirata,  
 G. Kedziora,  F. J. Keil,  C. Kelley,  P. P. Korambath,  W. Kurlancheek,  
 A. M. Lee,  M. S. Lee,  D. Liotard,  I. Lotan,  P. E. Maslen,  N. Nair,  
 D. Neuhauser,  R. Olson,  B. Peters,  J. Ritchie,  N. E. Schultz,  
 N. Shenvi,  A. C. Simmonett,  K. S. Thanthiriwatte,  Q. Wu,  W. Zhang

 Please cite Q-Chem as follows:
 Y. Shao et al., Mol. Phys. 113, 184-215 (2015)
 DOI: 10.1080/00268976.2014.952696

 Q-Chem 4.3.0 for Intel X86 Linux

 Parts of Q-Chem use Armadillo 5.200.1 (Boston Tea Smuggler).
 http://arma.sourceforge.net/

 Q-Chem begins on Thu Mar 16 11:01:37 2017  

Host: 
0

     Scratch files written to /scratch/qchem/qchem10133//
 Nov1815 1189b_ 19540  19532 5443   
 Parallel job on  1  processors
Processing $rem in /mnt/software/qchem/config/preferences.
 MEM_TOTAL  2000 

Checking the input file for inconsistencies... 	...done.

--------------------------------------------------------------
User input:
--------------------------------------------------------------
$comment
XAS calculation for the 2b valence excited for water using cvs-adc(2)-x + 6-311+G* basis set
job 1 - determination of HF orbitals
$end

$molecule
0 1
6  -0.511287  2.813686  -0.18097
9  0.696044  2.631797  -0.120277
9  -1.030512  3.519771  0.667608
9  -1.564735  0.091209  0.901663
9  -1.013967  2.863144  -1.334522
$end

$rem
jobtype      sp
sym_ignore true
exchange     hf
basis        6-31G*
unrestricted true
$end

--------------------------------------------------------------
 ----------------------------------------------------------------
             Standard Nuclear Orientation (Angstroms)
    I     Atom           X                Y                Z
 ----------------------------------------------------------------
    1      C      -0.5112870000     2.8136860000    -0.1809700000
    2      F       0.6960440000     2.6317970000    -0.1202770000
    3      F      -1.0305120000     3.5197710000     0.6676080000
    4      F      -1.5647350000     0.0912090000     0.9016630000
    5      F      -1.0139670000     2.8631440000    -1.3345220000
 ----------------------------------------------------------------
 Nuclear Repulsion Energy =   176.0719488585 hartrees
 There are       21 alpha and       21 beta electrons
 Requested basis set is 6-31G(d)
 There are 20 shells and 75 basis functions

 Total QAlloc Memory Limit   2000 MB
 Mega-Array Size        61 MB
 MEM_STATIC part        62 MB

                       Distance Matrix (Angstroms)
             C (  1)   F (  2)   F (  3)   F (  4)
   F (  2)  1.222463
   F (  3)  1.219932  2.095294
   F (  4)  3.113475  3.551066  3.477817
   F (  5)  1.259292  2.109988  2.107121  3.603816
 
 tim1(1): 
  0.000000000000000E+000
 tim1(2): 
  0.000000000000000E+000
 A cutoff of  1.0D-08 yielded    179 shell pairs
 There are      2710 function pairs
 
 -------------------------------------------------------
 OpenMP Integral Computing Module                       
 Release: version 1.0, May 2013, Q-Chem Inc. Pittsburgh 
 -------------------------------------------------------
 Integral Job Info:
 Integral job number is                      11
 Integral operator is                         1
 short-range coefficients                     0
 long-range coefficients              100000000
 Omega coefficients                           0
 if combine SR and LR in K                    0
 Integral screening is                        0
 Integral computing path is                   2
 max size of driver memory is            800000
 size of driver memory is                593474
 size of scratch memory is              2260544
 max col of scratch BK array               1296
 max len of scratch array in speh3          155
 max len of scratch index in speh4           18
 max int batch size is                      520
 min int batch size is                       52
 fixed nKL is                                52
 max L of basis functions is                  2
 order of int derivative is                   0
 number of shells is                         20
 number of basis is                          75
 number of cartesian basis is                75
 number of contracted shell pairs           179
 number of primitive shell pairs            885
 maxK2 (contraction) of shell pair           36
 max number of K2 of shell pair               1
 max number of CS2 of shell pair             27
 max number of PS2 of shell pair            180
 mem total for path MDJ                   17476
 -------------------------------------------------------
 Smallest overlap matrix eigenvalue = 3.76E-03

 Scale SEOQF with 1.000000e-01/1.000000e-01/1.000000e+00

 Standard Electronic Orientation quadrupole field applied
 Nucleus-field energy     =    -0.0000000069 hartrees
 Guess from superposition of atomic densities
 Warning:  Energy on first SCF cycle will be non-variational
 An unrestricted Hartree-Fock SCF calculation will be
 performed using Pulay DIIS extrapolation
 SCF converges when DIIS error is below 1.0E-05
 using 8 threads for integral computing 
 ---------------------------------------
  Cycle       Energy         DIIS Error
 ---------------------------------------
    1    -436.2913011138      8.94E-02
    2    -435.0864937652      2.12E-02
    3    -433.9386483706      3.94E-02
    4    -435.2679734178      1.11E-02
    5    -435.3062135897      6.59E-03
    6    -435.3318788280      2.25E-03
    7    -435.3394691413      7.80E-04
    8    -435.3430576330      6.35E-04
    9    -435.3436059286      2.49E-04
   10    -435.3437735953      6.94E-05
   11    -435.3437939485      4.80E-05
   12    -435.3437965131      1.17E-05
   13    -435.3437978366      1.58E-05
   14    -435.3437983278      2.44E-06 Convergence criterion met
 ---------------------------------------
 <S^2> = 0.0000
 SCF time:  CPU 15.01 s  wall 3.35 s
 SCF   energy in the final basis set = -435.3437983278
 Total energy in the final basis set = -435.3437983278
 
 --------------------------------------------------------------
 
                    Orbital Energies (a.u.)
 --------------------------------------------------------------
 
 Alpha MOs
 -- Occupied --
-26.552 -26.551 -26.536 -26.014 -11.753  -1.969  -1.870  -1.847
 -1.250  -1.134  -1.045  -1.040  -0.986  -0.882  -0.877  -0.854
 -0.844  -0.826  -0.365  -0.365  -0.317
 -- Virtual --
 -0.046   0.242   0.361   0.374   0.555   0.583   0.610   0.622
  1.182   1.184   1.199   1.280   1.285   1.311   1.464   1.473
  1.476   1.477   1.492   1.521   1.606   1.714   1.714   1.807
  1.835   1.838   1.933   1.936   1.968   2.050   2.058   2.122
  2.147   2.156   2.160   2.250   2.388   2.389   2.389   2.389
  2.394   2.645   2.779   2.818   3.098   3.135   3.349   3.359
  3.385   4.040   4.418   4.736   4.824   4.871
 
 Beta MOs
 -- Occupied --
-26.552 -26.551 -26.536 -26.014 -11.753  -1.969  -1.870  -1.847
 -1.250  -1.134  -1.045  -1.040  -0.986  -0.882  -0.877  -0.854
 -0.844  -0.826  -0.365  -0.365  -0.317
 -- Virtual --
 -0.046   0.242   0.361   0.374   0.555   0.583   0.610   0.622
  1.182   1.184   1.199   1.280   1.285   1.311   1.464   1.473
  1.476   1.477   1.492   1.521   1.606   1.714   1.714   1.807
  1.835   1.838   1.933   1.936   1.968   2.050   2.058   2.122
  2.147   2.156   2.160   2.250   2.388   2.389   2.389   2.389
  2.394   2.645   2.779   2.818   3.098   3.135   3.349   3.359
  3.385   4.040   4.418   4.736   4.824   4.871
 --------------------------------------------------------------
 
          Ground-State Mulliken Net Atomic Charges

     Atom                 Charge (a.u.)    Spin (a.u.)
  --------------------------------------------------------
      1 C                     1.147861       0.000000
      2 F                    -0.118970       0.000000
      3 F                    -0.113342       0.000000
      4 F                    -0.751947       0.000000
      5 F                    -0.163602       0.000000
  --------------------------------------------------------
  Sum of atomic charges =     0.000000
  Sum of spin   charges =     0.000000

 -----------------------------------------------------------------
                    Cartesian Multipole Moments
 -----------------------------------------------------------------
    Charge (ESU x 10^10)
                 0.0000
    Dipole Moment (Debye)
         X       3.7906      Y       9.6171      Z      -3.6638
       Tot      10.9673
    Quadrupole Moments (Debye-Ang)
        XX     -30.6543     XY      -4.2001     YY       5.5416
        XZ       5.0708     YZ      -1.7949     ZZ     -25.8164
    Octopole Moments (Debye-Ang^2)
       XXX      63.5464    XXY     -50.7881    XYY       2.8904
       YYY     -75.0061    XXZ      -8.2456    XYZ       0.9817
       YYZ      -4.4623    XZZ      20.8796    YZZ     -52.4869
       ZZZ      -4.4741
    Hexadecapole Moments (Debye-Ang^3)
      XXXX    -188.0319   XXXY      84.8141   XXYY    -177.4324
      XYYY      44.5971   YYYY    -702.8436   XXXZ      25.7350
      XXYZ       8.7795   XYYZ       4.5687   YYYZ      17.9675
      XXZZ     -50.8947   XYZZ      27.5932   YYZZ    -172.2119
      XZZZ      18.3694   YZZZ      28.7590   ZZZZ    -100.7575
 -----------------------------------------------------------------
Archival summary:
1\1\tp-linux1\SP\HF\6-31G*\41\thomas\ThuMar1611:01:402017ThuMar1611:01:402017\0\\#,HF,6-31G*,\\0,1\C\F,1,1.21993\F,1,1.22246,2,118.16\F,1,1.25929,2,116.395,3,146.084,0\F,1,3.11348,2,96.9048,3,-106.155,0\\HF=-435.343798\\@

 Total job time:  3.66s(wall), 16.76s(cpu) 
 Thu Mar 16 11:01:40 2017

        *************************************************************
        *                                                           *
        *  Thank you very much for using Q-Chem.  Have a nice day.  *
        *                                                           *
        *************************************************************


0 sent ACK to 0 
now end server 0 ... 
cleanup process ... done

Running Job 2 of 2 ddtraj1t44.inp
qchem ddtraj1t44.inp_10133.1 /scratch/qchem/qchem10133/ 1
/mnt/software/qchem/bin/mpi/mpirun_qchem -machinefile /mnt/software/qchem/bin/mpi/machines -np 1 /mnt/software/qchem/exe/qcprog.exe ddtraj1t44.inp_10133.1 /scratch/qchem/qchem10133/

Process 0 of 1 is on tp-linux1 - thread support 0
initial socket setup ...start
initial socket setup ...done 
now start server 0 ... 

cmd = ssh tp-linux1 /mnt/software/qchem/bin/get_hostid 596554359 > /scratch/qchem/qchem10133/lic.dat
                  Welcome to Q-Chem
     A Quantum Leap Into The Future Of Chemistry


 Q-Chem 4.3, Q-Chem, Inc., Pleasanton, CA (2015)

 Y. Shao,  Z. Gan,  E. Epifanovsky,  A. T. B. Gilbert,  M. Wormit,  
 J. Kussmann,  A. W. Lange,  A. Behn,  J. Deng,  X. Feng,  D. Ghosh,  
 M. Goldey,  P. R. Horn,  L. D. Jacobson,  I. Kaliman,  R. Z. Khaliullin,  
 T. Kus,  A. Landau,  J. Liu,  E. I. Proynov,  Y. M. Rhee,  R. M. Richard,  
 M. A. Rohrdanz,  R. P. Steele,  E. J. Sundstrom,  H. L. Woodcock III,  
 P. M. Zimmerman,  D. Zuev,  B. Albrecht,  E. Alguire,  B. Austin,  
 S. A. Baeppler,  G. J. O. Beran,  Y. A. Bernard,  E. Berquist,  
 K. Brandhorst,  K. B. Bravaya,  S. T. Brown,  D. Casanova,  C.-M. Chang,  
 Y. Chen,  S. H. Chien,  K. D. Closser,  D. L. Crittenden,  M. Diedenhofen,  
 R. A. DiStasio Jr.,  H. Do,  A. D. Dutoi,  R. G. Edgar,  P.-T. Fang,  
 S. Fatehi,  Q. Feng,  L. Fusti-Molnar,  A. Ghysels,  
 A. Golubeva-Zadorozhnaya,  J. Gomes,  A. Gunina,  M. W. D. Hanson-Heine,  
 P. H. P. Harbach,  A. W. Hauser,  E. G. Hohenstein,  Z. C. Holden,  K. Hui,  
 T.-C. Jagau,  H. Ji,  B. Kaduk,  K. Khistyaev,  Jaehoon Kim,  Jihan Kim,  
 R. A. King,  P. Klunzinger,  D. Kosenkov,  T. Kowalczyk,  C. M. Krauter,  
 K. U. Lao,  A. Laurent,  K. V. Lawler,  S. Lehtola,  S. V. Levchenko,  
 C. Y. Lin,  Y.-S. Lin,  F. Liu,  E. Livshits,  R. C. Lochan,  A. Luenser,  
 P. Manohar,  S. F. Manzer,  S.-P. Mao,  N. Mardirossian,  A. V. Marenich,  
 L. A. Martinez-Martinez,  S. A. Maurer,  N. J. Mayhall,  K. Nanda,  
 C. M. Oana,  R. Olivares-Amaya,  D. P. O'Neill,  J. A. Parkhill,  
 T. M. Perrine,  R. Peverati,  P. A. Pieniazek,  F. Plasser,  A. Prociuk,  
 D. R. Rehn,  E. Rosta,  N. J. Russ,  N. Sergueev,  S. M. Sharada,  
 S. Sharma,  D. W. Small,  A. Sodt,  T. Stauch,  T. Stein,  D. Stuck,  
 Y.-C. Su,  A. J. W. Thom,  T. Tsuchimochi,  L. Vogt,  O. Vydrov,  T. Wang,  
 M. A. Watson,  J. Wenzel,  A. White,  C. F. Williams,  V. Vanovschi,  
 S. Yeganeh,  S. R. Yost,  Z.-Q. You,  I. Y. Zhang,  X. Zhang,  Y. Zhao,  
 B. R. Brooks,  G. K. L. Chan,  D. M. Chipman,  C. J. Cramer,  
 W. A. Goddard III,  M. S. Gordon,  W. J. Hehre,  A. Klamt,  
 H. F. Schaefer III,  M. W. Schmidt,  C. D. Sherrill,  D. G. Truhlar,  
 A. Warshel,  X. Xu,  A. Aspuru-Guzik,  R. Baer,  A. T. Bell,  N. A. Besley,  
 J.-D. Chai,  A. Dreuw,  B. D. Dunietz,  T. R. Furlani,  S. R. Gwaltney,  
 C.-P. Hsu,  Y. Jung,  J. Kong,  D. S. Lambrecht,  W. Liang,  C. Ochsenfeld,  
 V. A. Rassolov,  L. V. Slipchenko,  J. E. Subotnik,  T. Van Voorhis,  
 J. M. Herbert,  A. I. Krylov,  P. M. W. Gill,  M. Head-Gordon

 Contributors to earlier versions of Q-Chem not listed above: 
 R. D. Adamson,  J. Baker,  E. F. C. Byrd,  A. K. Chakraborty,  C.-L. Cheng,  
 H. Dachsel,  R. J. Doerksen,  G. Hawkins,  A. Heyden,  S. Hirata,  
 G. Kedziora,  F. J. Keil,  C. Kelley,  P. P. Korambath,  W. Kurlancheek,  
 A. M. Lee,  M. S. Lee,  D. Liotard,  I. Lotan,  P. E. Maslen,  N. Nair,  
 D. Neuhauser,  R. Olson,  B. Peters,  J. Ritchie,  N. E. Schultz,  
 N. Shenvi,  A. C. Simmonett,  K. S. Thanthiriwatte,  Q. Wu,  W. Zhang

 Please cite Q-Chem as follows:
 Y. Shao et al., Mol. Phys. 113, 184-215 (2015)
 DOI: 10.1080/00268976.2014.952696

 Q-Chem 4.3.0 for Intel X86 Linux

 Parts of Q-Chem use Armadillo 5.200.1 (Boston Tea Smuggler).
 http://arma.sourceforge.net/

 Q-Chem begins on Thu Mar 16 11:01:43 2017  

Host: 
0

     Scratch files written to /scratch/qchem/qchem10133//
 Nov1815 1189b_ 19540  19532 5443   
 Parallel job on  1  processors
Processing $rem in /mnt/software/qchem/config/preferences.
 MEM_TOTAL  2000 

Checking the input file for inconsistencies... 	...done.

--------------------------------------------------------------
User input:
--------------------------------------------------------------

$comment
job3 - cvs-adc(2) calculation
$end

$molecule
read
$end

$rem
mem_total 3000
mem_static 1500
sym_ignore true
scf_guess read
method cvs-adc(2)
basis 6-31G*
ee_singlets 20
cc_rest_occ 5                  !only excitations from the lowest N orbitals
unrestricted  true
max_scf_cycles 200
$end
--------------------------------------------------------------
 ----------------------------------------------------------------
             Standard Nuclear Orientation (Angstroms)
    I     Atom           X                Y                Z
 ----------------------------------------------------------------
    1      C      -0.5112870000     2.8136860000    -0.1809700000
    2      F       0.6960440000     2.6317970000    -0.1202770000
    3      F      -1.0305120000     3.5197710000     0.6676080000
    4      F      -1.5647350000     0.0912090000     0.9016630000
    5      F      -1.0139670000     2.8631440000    -1.3345220000
 ----------------------------------------------------------------
 Nuclear Repulsion Energy =   176.0719488585 hartrees
 There are       21 alpha and       21 beta electrons
 Requested basis set is 6-31G(d)
 There are 20 shells and 75 basis functions

 Total QAlloc Memory Limit   3000 MB
 Mega-Array Size      1467 MB
 MEM_STATIC part      1500 MB

                       Distance Matrix (Angstroms)
             C (  1)   F (  2)   F (  3)   F (  4)
   F (  2)  1.222463
   F (  3)  1.219932  2.095294
   F (  4)  3.113475  3.551066  3.477817
   F (  5)  1.259292  2.109988  2.107121  3.603816
 
 tim1(1): 
  0.000000000000000E+000
 tim1(2): 
  0.000000000000000E+000
 A cutoff of  1.0D-11 yielded    187 shell pairs
 There are      2866 function pairs
 
 -------------------------------------------------------
 OpenMP Integral Computing Module                       
 Release: version 1.0, May 2013, Q-Chem Inc. Pittsburgh 
 -------------------------------------------------------
 Integral Job Info:
 Integral job number is                      11
 Integral operator is                         1
 short-range coefficients                     0
 long-range coefficients              100000000
 Omega coefficients                           0
 if combine SR and LR in K                    0
 Integral screening is                        0
 Integral computing path is                   2
 max size of driver memory is            800000
 size of driver memory is                593474
 size of scratch memory is              2260544
 max col of scratch BK array               1296
 max len of scratch array in speh3          155
 max len of scratch index in speh4           18
 max int batch size is                      520
 min int batch size is                       52
 fixed nKL is                                52
 max L of basis functions is                  2
 order of int derivative is                   0
 number of shells is                         20
 number of basis is                          75
 number of cartesian basis is                75
 number of contracted shell pairs           187
 number of primitive shell pairs            944
 maxK2 (contraction) of shell pair           36
 max number of K2 of shell pair               1
 max number of CS2 of shell pair             32
 max number of PS2 of shell pair            192
 mem total for path MDJ                   18100
 -------------------------------------------------------
 Smallest overlap matrix eigenvalue = 3.76E-03

 Scale SEOQF with 1.000000e-01/1.000000e-01/1.000000e+00

 Standard Electronic Orientation quadrupole field applied
 Nucleus-field energy     =    -0.0000000069 hartrees
 Guess MOs from SCF MO coefficient file
 Reading MOs from coefficient file
 Reading MOs from coefficient file
 An unrestricted Hartree-Fock SCF calculation will be
 performed using Pulay DIIS extrapolation
 SCF converges when DIIS error is below 1.0E-08
 using 8 threads for integral computing 
 ---------------------------------------
  Cycle       Energy         DIIS Error
 ---------------------------------------
    1    -435.3437984510      9.36E-07
    2    -435.3437984530      1.47E-06
    3    -435.3437984537      7.95E-07
    4    -435.3437984545      2.42E-07
    5    -435.3437984546      4.87E-08
    6    -435.3437984546      3.03E-08
    7    -435.3437984546      2.17E-08
    8    -435.3437984546      9.05E-09 Convergence criterion met
 ---------------------------------------
 <S^2> = 0.0000
 SCF time:  CPU 7.51 s  wall 2.12 s
 SCF   energy in the final basis set = -435.3437984546
 Total energy in the final basis set = -435.3437984546
================================================================================
|                                                                              |
|                                 A D C  M A N                                 |
|                                                                              |
 ------------------------------------------------------------------------------ 
|                                                                              |
| Components:                                                                  |
|                                                                              |
| - libvmm - 1.2-release                                                       |
|   Authors:                                                                   |
|   Evgeny Epifanovsky, Ilya Kaliman                                           |
|                                                                              |
| - libtensor - 2.4-trunk                                                      |
|   Authors:                                                                   |
|   Evgeny Epifanovsky, Michael Wormit, Dmitry Zuev, Sam Manzer                |
|                                                                              |
| - libwfa - 1.1-beta                                                          |
|   Authors:                                                                   |
|   Felix Plasser, Stefanie Baeppler, Benjamin Thomitzni, Michael Wormit       |
|                                                                              |
| - libadc - 1.0-beta                                                          |
|   Authors:                                                                   |
|   Michael Wormit, Philipp H. P. Harbach, Caroline Krauter, Dirk Rehn,        |
|   Matthias Schneider, Jan Wenzel                                             |
|                                                                              |
| - adcman - 2.4-beta                                                          |
|   Authors:                                                                   |
|   Michael Wormit, Philipp H. P. Harbach, Caroline Krauter, Dirk Rehn,        |
|   Jan Wenzel, Andreas Dreuw                                                  |
|                                                                              |
| Authors of earlier versions of ADCMAN:                                       |
| Andreas Dreuw, Jan Hendrik Starcke, Dirk Rehn, Michael Wormit                |
|                                                                              |
================================================================================

 
 Alpha MOs, Unrestricted
 -- Occupied --                  
-26.552 -26.551 -26.536 -26.014 -11.753  -1.969  -1.871  -1.847
  1 A     2 A     3 A     4 A     5 A     6 A     7 A     8 A                  
 -1.250  -1.134  -1.045  -1.040  -0.986  -0.882  -0.878  -0.854
  9 A    10 A    11 A    12 A    13 A    14 A    15 A    16 A                  
 -0.844  -0.826  -0.365  -0.365  -0.317
 17 A    18 A    19 A    20 A    21 A                                          
 -- Virtual --                   
 -0.046   0.242   0.361   0.374   0.555   0.583   0.610   0.622
 22 A    23 A    24 A    25 A    26 A    27 A    28 A    29 A                  
  1.182   1.184   1.199   1.280   1.285   1.311   1.464   1.473
 30 A    31 A    32 A    33 A    34 A    35 A    36 A    37 A                  
  1.476   1.477   1.492   1.521   1.606   1.714   1.715   1.807
 38 A    39 A    40 A    41 A    42 A    43 A    44 A    45 A                  
  1.835   1.838   1.933   1.936   1.968   2.050   2.058   2.122
 46 A    47 A    48 A    49 A    50 A    51 A    52 A    53 A                  
  2.147   2.156   2.160   2.250   2.389   2.389   2.389   2.389
 54 A    55 A    56 A    57 A    58 A    59 A    60 A    61 A                  
  2.394   2.645   2.779   2.818   3.098   3.135   3.349   3.359
 62 A    63 A    64 A    65 A    66 A    67 A    68 A    69 A                  
  3.385   4.040   4.418   4.736   4.824   4.871
 70 A    71 A    72 A    73 A    74 A    75 A                                  
 
 Beta MOs, Unrestricted
 -- Occupied --                  
-26.552 -26.551 -26.536 -26.014 -11.753  -1.969  -1.871  -1.847
  1 A     2 A     3 A     4 A     5 A     6 A     7 A     8 A                  
 -1.250  -1.134  -1.045  -1.040  -0.986  -0.882  -0.878  -0.854
  9 A    10 A    11 A    12 A    13 A    14 A    15 A    16 A                  
 -0.844  -0.826  -0.365  -0.365  -0.317
 17 A    18 A    19 A    20 A    21 A                                          
 -- Virtual --                   
 -0.046   0.242   0.361   0.374   0.555   0.583   0.610   0.622
 22 A    23 A    24 A    25 A    26 A    27 A    28 A    29 A                  
  1.182   1.184   1.199   1.280   1.285   1.311   1.464   1.473
 30 A    31 A    32 A    33 A    34 A    35 A    36 A    37 A                  
  1.476   1.477   1.492   1.521   1.606   1.714   1.715   1.807
 38 A    39 A    40 A    41 A    42 A    43 A    44 A    45 A                  
  1.835   1.838   1.933   1.936   1.968   2.050   2.058   2.122
 46 A    47 A    48 A    49 A    50 A    51 A    52 A    53 A                  
  2.147   2.156   2.160   2.250   2.389   2.389   2.389   2.389
 54 A    55 A    56 A    57 A    58 A    59 A    60 A    61 A                  
  2.394   2.645   2.779   2.818   3.098   3.135   3.349   3.359
 62 A    63 A    64 A    65 A    66 A    67 A    68 A    69 A                  
  3.385   4.040   4.418   4.736   4.824   4.871
 70 A    71 A    72 A    73 A    74 A    75 A                                  
 

--------------------------------------------------------------------------------
                                   HF Summary                                   
--------------------------------------------------------------------------------
  Energy:                                                 -435.3437984546 a.u.
  Dip. moment [a.u.]:                  [ -56.834546,  182.987609,    1.336687]
  Total dipole [Debye]:                                             487.037567
  <r^2> [a.u.]:                        [ 189.828391, 1050.021291,  118.053641]
  Total <r^2> [a.u.]:                                              1357.903324
--------------------------------------------------------------------------------

--------------------------------------------------------------------------------
                                 MP(2) Summary                                  
--------------------------------------------------------------------------------
  Energy contribution:                                      -0.8285256429 a.u.
  Total energy:                                           -436.1723240974 a.u.
  Dip. moment [a.u.]:                  [ -56.258680,  184.454142,    0.739052]
  Total dipole [Debye]:                                             490.161355
  <r^2> [a.u.]:                        [ 187.498970, 1056.948054,  117.135518]
  Total <r^2> [a.u.]:                                              1361.582542
--------------------------------------------------------------------------------
  Starting Davidson ... 
--------------------------------------------------------------------------------
   It NVec Conv  Avg. Norm  Max. Norm  Conv. states           Remark
--------------------------------------------------------------------------------
        20    0  2.071e-01  1.066e+00 10.9841 n n n n n n n n Guess.
    1   40    0  6.571e-02  7.570e-01 10.8210 n n n n n n n n 
    2   60    0  2.629e-02  3.791e-01 10.8192 n n n n n n n n 
    3   80    0  4.841e-03  6.394e-02 10.8192 n n n n n n n n 
    4  100    0  1.679e-03  2.004e-02 10.8191 n n n n n n n n 
    5   40    0  9.193e-04  1.031e-02 10.8191 n n n n n n n n Subspace collapsed.
    6   60    0  5.818e-04  8.470e-03 10.8191 n n n n n n n n 
    7   80    0  3.122e-04  5.063e-03 10.8191 n n n n n n n n 
    8  100    1  2.164e-04  3.994e-03 10.8191 y n n n n n n n 
    9   40    7  1.028e-04  1.807e-03 10.8191 y y n y y y y y Subspace collapsed.
   10   60    7  6.775e-05  1.192e-03 10.8191 y y n y y y y y 
   11   80    8  4.861e-05  7.871e-04 10.8191 y y y y y y y y 
   12  100   13  4.517e-05  7.235e-04 10.8191 y y y y y y y y 
   13   40   16  2.517e-05  4.248e-04 10.8191 y y y y y y y y Subspace collapsed.
   14   60   16  2.639e-05  4.939e-04 10.8191 y y y y y y y y 
   15   80   16  1.830e-05  3.305e-04 10.8191 y y y y y y y y 
   16  100   16  1.700e-05  2.622e-04 10.8191 y y y y y y y y 
   17   39   16  1.112e-05  1.884e-04 10.8191 y y y y y y y y Subspace collapsed.
   18   57   17  9.762e-06  1.581e-04 10.8191 y y y y y y y y 
   19   73   17  1.032e-05  1.537e-04 10.8191 y y y y y y y y 
   20   87   18  1.272e-05  1.890e-04 10.8191 y y y y y y y y 
   21  100   18  1.392e-05  2.042e-04 10.8191 y y y y y y y y 
   22   32   18  7.705e-06  1.212e-04 10.8191 y y y y y y y y Subspace collapsed.
   23   44   18  5.704e-06  8.743e-05 10.8191 y y y y y y y y 
   24   56   18  5.095e-06  8.467e-05 10.8191 y y y y y y y y 
   25   56   18  5.095e-06  8.467e-05 10.8191 y y y y y y y y 
   26   76   18  5.926e-06  9.382e-05 10.8191 y y y y y y y y 
   27   76   18  5.926e-06  9.382e-05 10.8191 y y y y y y y y 
   28   77   18  5.921e-06  9.382e-05 10.8191 y y y y y y y y 
   29   77   18  5.921e-06  9.382e-05 10.8191 y y y y y y y y 
   30   78   18  5.918e-06  9.382e-05 10.8191 y y y y y y y y 
   31   78   18  5.918e-06  9.382e-05 10.8191 y y y y y y y y 
   32   78   18  5.918e-06  9.382e-05 10.8191 y y y y y y y y 
   33   98   18  8.786e-06  1.668e-04 10.8191 y y y y y y y y 
   34   99   18  8.747e-06  1.660e-04 10.8191 y y y y y y y y 
   35  100   18  8.723e-06  1.660e-04 10.8191 y y y y y y y y 
   36   25   18  4.458e-06  7.927e-05 10.8191 y y y y y y y y Subspace collapsed.
   37   30   18  3.487e-06  5.527e-05 10.8191 y y y y y y y y 
   38   35   18  3.226e-06  4.917e-05 10.8191 y y y y y y y y 
   39   40   18  3.703e-06  5.781e-05 10.8191 y y y y y y y y 
   40   45   18  4.262e-06  6.795e-05 10.8191 y y y y y y y y 
   41   50   18  4.040e-06  7.085e-05 10.8191 y y y y y y y y 
   42   50   18  4.040e-06  7.085e-05 10.8191 y y y y y y y y 
   43   53   18  4.042e-06  7.081e-05 10.8191 y y y y y y y y 
   44   58   18  3.540e-06  6.350e-05 10.8191 y y y y y y y y 
   45   58   18  3.540e-06  6.350e-05 10.8191 y y y y y y y y 
   46   61   18  3.545e-06  6.351e-05 10.8191 y y y y y y y y 
   47   61   18  3.545e-06  6.351e-05 10.8191 y y y y y y y y 
   48   63   18  3.549e-06  6.372e-05 10.8191 y y y y y y y y 
   49   63   18  3.549e-06  6.372e-05 10.8191 y y y y y y y y 
   50   64   18  3.589e-06  6.465e-05 10.8191 y y y y y y y y 
   51   68   18  2.069e-06  3.377e-05 10.8191 y y y y y y y y 
   52   72   18  2.132e-06  3.571e-05 10.8191 y y y y y y y y 
   53   76   18  1.979e-06  3.395e-05 10.8191 y y y y y y y y 
   54   80   18  1.737e-06  3.299e-05 10.8191 y y y y y y y y 
   55   81   18  1.716e-06  3.273e-05 10.8191 y y y y y y y y 
   56   82   18  1.717e-06  3.267e-05 10.8191 y y y y y y y y 
   57   83   18  1.714e-06  3.263e-05 10.8191 y y y y y y y y 
   58   83   18  1.714e-06  3.263e-05 10.8191 y y y y y y y y 
   59   83   18  1.714e-06  3.263e-05 10.8191 y y y y y y y y 
--------------------------------------------------------------------------------
  Davidson Summary: 
 ------------------------------------------------------------
  State  0: excitation energy =  10.8191 a.u.   (converged)
  State  1: excitation energy =  10.8889 a.u.   (converged)
  State  2: excitation energy =  11.1448 a.u.   (converged)
  State  3: excitation energy =  11.1859 a.u.   (converged)
  State  4: excitation energy =  11.2104 a.u.   (converged)
  State  5: excitation energy =  11.2115 a.u.   (converged)
  State  6: excitation energy =  11.2602 a.u.   (converged)
  State  7: excitation energy =  11.2875 a.u.   (converged)
  State  8: excitation energy =  11.5034 a.u.   (converged)
  State  9: excitation energy =  11.5395 a.u.   (converged)
  State 10: excitation energy =  11.5504 a.u.   (converged)
  State 11: excitation energy =  11.5520 a.u.   (converged)
  State 12: excitation energy =  11.5584 a.u.   (converged)
  State 13: excitation energy =  11.5662 a.u.   (converged)
  State 14: excitation energy =  11.5703 a.u.   (converged)
  State 15: excitation energy =  11.6040 a.u.   (converged)
  State 16: excitation energy =  11.9856 a.u.   (converged)
  State 17: excitation energy =  11.9871 a.u.   (converged)
  State 18: excitation energy =  12.1874 a.u.   (not converged)
  State 19: excitation energy =  12.1935 a.u.   (not converged)
 ------------------------------------------------------------


--------------------------------------------------------------------------------
                             Excited State Summary
--------------------------------------------------------------------------------

  Excited state  1 (A)                                             [converged]
  ----------------------------------------------------------------------------
  Term symbol:  2 (-) A                                     R^2 =  8.97265e-14

  Total energy:                                           -425.3531752914 a.u.
  Excitation energy:                                             294.404012 eV

  Osc. strength:                                                      0.000000
  Trans. dip. moment [a.u.]:           [   0.000000,    0.000000,   -0.000000]
  <i|r^2|0> [a.u.]:                    [  -0.000000,    0.000000,    0.000000]

  V1^2 = 0.9536, V2^2 = 0.0464

  Important amplitudes:
     core i     occ j      vir a      vir b          v   
    ------------------------------------------------------
     5 (A) B              22 (A) B                 0.6521
     5 (A) A              22 (A) A                -0.6521
    ------------------------------------------------------
  ----------------------------------------------------------------------------


  Excited state  2 (A)                                             [converged]
  ----------------------------------------------------------------------------
  Term symbol:  3 (-) A                                     R^2 =  1.34004e-13

  Total energy:                                           -425.2834403870 a.u.
  Excitation energy:                                             296.301595 eV

  Osc. strength:                                                      0.087173
  Trans. dip. moment [a.u.]:           [  -0.035989,   -0.098487,    0.031837]
  <i|r^2|0> [a.u.]:                    [   0.075937,   -1.039718,   -0.015482]

  V1^2 = 0.9470, V2^2 = 0.0530

  Important amplitudes:
     core i     occ j      vir a      vir b          v   
    ------------------------------------------------------
     5 (A) A              22 (A) A                -0.6620
     5 (A) B              22 (A) B                -0.6620
    ------------------------------------------------------
  ----------------------------------------------------------------------------


  Excited state  3 (A)                                             [converged]
  ----------------------------------------------------------------------------
  Term symbol:  4 (-) A                                     R^2 =  1.40356e-13

  Total energy:                                           -425.0275164870 a.u.
  Excitation energy:                                             303.265638 eV

  Osc. strength:                                                      0.000000
  Trans. dip. moment [a.u.]:           [  -0.000000,   -0.000000,    0.000000]
  <i|r^2|0> [a.u.]:                    [   0.000000,   -0.000000,   -0.000000]

  V1^2 = 0.9293, V2^2 = 0.0707

  Important amplitudes:
     core i     occ j      vir a      vir b          v   
    ------------------------------------------------------
     5 (A) B              23 (A) B                -0.5473
     5 (A) A              23 (A) A                 0.5473
    ------------------------------------------------------
  ----------------------------------------------------------------------------


  Excited state  4 (A)                                             [converged]
  ----------------------------------------------------------------------------
  Term symbol:  5 (-) A                                     R^2 =  1.08974e-13

  Total energy:                                           -424.9864037795 a.u.
  Excitation energy:                                             304.384372 eV

  Osc. strength:                                                      0.000000
  Trans. dip. moment [a.u.]:           [   0.000000,   -0.000000,    0.000000]
  <i|r^2|0> [a.u.]:                    [  -0.000000,   -0.000000,   -0.000000]

  V1^2 = 0.9446, V2^2 = 0.0554

  Important amplitudes:
     core i     occ j      vir a      vir b          v   
    ------------------------------------------------------
     5 (A) A              24 (A) A                 0.4755
     5 (A) B              24 (A) B                -0.4755
    ------------------------------------------------------
  ----------------------------------------------------------------------------


  Excited state  5 (A)                                             [converged]
  ----------------------------------------------------------------------------
  Term symbol:  6 (-) A                                     R^2 =  1.57325e-13

  Total energy:                                           -424.9618911157 a.u.
  Excitation energy:                                             305.051396 eV

  Osc. strength:                                                      0.000000
  Trans. dip. moment [a.u.]:           [  -0.000000,   -0.000000,    0.000000]
  <i|r^2|0> [a.u.]:                    [   0.000000,   -0.000000,   -0.000000]

  V1^2 = 0.9498, V2^2 = 0.0502

  Important amplitudes:
     core i     occ j      vir a      vir b          v   
    ------------------------------------------------------
     5 (A) A              25 (A) A                -0.4952
     5 (A) B              25 (A) B                 0.4952
    ------------------------------------------------------
  ----------------------------------------------------------------------------


  Excited state  6 (A)                                             [converged]
  ----------------------------------------------------------------------------
  Term symbol:  7 (-) A                                     R^2 =  1.06372e-13

  Total energy:                                           -424.9607992711 a.u.
  Excitation energy:                                             305.081106 eV

  Osc. strength:                                                      0.022695
  Trans. dip. moment [a.u.]:           [   0.002437,   -0.030390,    0.045901]
  <i|r^2|0> [a.u.]:                    [  -0.020884,   -0.347849,   -0.045349]

  V1^2 = 0.9122, V2^2 = 0.0878

  Important amplitudes:
     core i     occ j      vir a      vir b          v   
    ------------------------------------------------------
     5 (A) A              23 (A) A                -0.6133
     5 (A) B              23 (A) B                -0.6133
    ------------------------------------------------------
  ----------------------------------------------------------------------------


  Excited state  7 (A)                                             [converged]
  ----------------------------------------------------------------------------
  Term symbol:  8 (-) A                                     R^2 =  1.53885e-13

  Total energy:                                           -424.9121488194 a.u.
  Excitation energy:                                             306.404952 eV

  Osc. strength:                                                      0.108137
  Trans. dip. moment [a.u.]:           [  -0.062462,   -0.021850,   -0.100131]
  <i|r^2|0> [a.u.]:                    [   0.121351,   -0.237195,    0.059327]

  V1^2 = 0.9378, V2^2 = 0.0622

  Important amplitudes:
     core i     occ j      vir a      vir b          v   
    ------------------------------------------------------
     5 (A) B              24 (A) B                -0.5459
     5 (A) A              24 (A) A                -0.5459
    ------------------------------------------------------
  ----------------------------------------------------------------------------


  Excited state  8 (A)                                             [converged]
  ----------------------------------------------------------------------------
  Term symbol:  9 (-) A                                     R^2 =  4.15245e-14

  Total energy:                                           -424.8848386231 a.u.
  Excitation energy:                                             307.148101 eV

  Osc. strength:                                                      0.113771
  Trans. dip. moment [a.u.]:           [  -0.099467,    0.053206,    0.048935]
  <i|r^2|0> [a.u.]:                    [   0.199616,    0.563402,   -0.037127]

  V1^2 = 0.9392, V2^2 = 0.0608

  Important amplitudes:
     core i     occ j      vir a      vir b          v   
    ------------------------------------------------------
     5 (A) B              25 (A) B                -0.5458
     5 (A) A              25 (A) A                -0.5458
    ------------------------------------------------------
  ----------------------------------------------------------------------------


  Excited state  9 (A)                                             [converged]
  ----------------------------------------------------------------------------
  Term symbol:  10 (-) A                                    R^2 =  1.17836e-13

  Total energy:                                           -424.6689319838 a.u.
  Excitation energy:                                             313.023219 eV

  Osc. strength:                                                      0.000000
  Trans. dip. moment [a.u.]:           [  -0.000000,   -0.000000,    0.000000]
  <i|r^2|0> [a.u.]:                    [   0.000000,   -0.000000,   -0.000000]

  V1^2 = 0.8919, V2^2 = 0.1081

  Important amplitudes:
     core i     occ j      vir a      vir b          v   
    ------------------------------------------------------
     5 (A) B              26 (A) B                 0.4881
     5 (A) A              26 (A) A                -0.4881
    ------------------------------------------------------
  ----------------------------------------------------------------------------


  Excited state 10 (A)                                             [converged]
  ----------------------------------------------------------------------------
  Term symbol:  11 (-) A                                    R^2 =  2.50284e-13

  Total energy:                                           -424.6328217714 a.u.
  Excitation energy:                                             314.005828 eV

  Osc. strength:                                                      0.029485
  Trans. dip. moment [a.u.]:           [   0.021523,    0.056515,   -0.013247]
  <i|r^2|0> [a.u.]:                    [  -0.029061,    0.614942,    0.022119]

  V1^2 = 0.8907, V2^2 = 0.1093

  Important amplitudes:
     core i     occ j      vir a      vir b          v   
    ------------------------------------------------------
     5 (A) A              26 (A) A                -0.5941
     5 (A) B              26 (A) B                -0.5941
    ------------------------------------------------------
  ----------------------------------------------------------------------------


  Excited state 11 (A)                                             [converged]
  ----------------------------------------------------------------------------
  Term symbol:  12 (-) A                                    R^2 =  1.64269e-13

  Total energy:                                           -424.6218876514 a.u.
  Excitation energy:                                             314.303360 eV

  Osc. strength:                                                      0.000000
  Trans. dip. moment [a.u.]:           [   0.000000,    0.000000,    0.000000]
  <i|r^2|0> [a.u.]:                    [  -0.000000,    0.000000,   -0.000000]

  V1^2 = 0.8814, V2^2 = 0.1186

  Important amplitudes:
     core i     occ j      vir a      vir b          v   
    ------------------------------------------------------
     5 (A) B              27 (A) B                 0.4990
     5 (A) A              27 (A) A                -0.4990
    ------------------------------------------------------
  ----------------------------------------------------------------------------


  Excited state 12 (A)                                             [converged]
  ----------------------------------------------------------------------------
  Term symbol:  13 (-) A                                    R^2 =  1.92557e-13

  Total energy:                                           -424.6203025723 a.u.
  Excitation energy:                                             314.346493 eV

  Osc. strength:                                                      0.000000
  Trans. dip. moment [a.u.]:           [   0.000000,   -0.000000,   -0.000000]
  <i|r^2|0> [a.u.]:                    [  -0.000000,   -0.000000,    0.000000]

  V1^2 = 0.8821, V2^2 = 0.1179

  Important amplitudes:
     core i     occ j      vir a      vir b          v   
    ------------------------------------------------------
     5 (A) B              28 (A) B                 0.4705
     5 (A) A              28 (A) A                -0.4705
    ------------------------------------------------------
  ----------------------------------------------------------------------------


  Excited state 13 (A)                                             [converged]
  ----------------------------------------------------------------------------
  Term symbol:  14 (-) A                                    R^2 =  6.76569e-13

  Total energy:                                           -424.6139025802 a.u.
  Excitation energy:                                             314.520645 eV

  Osc. strength:                                                      0.000000
  Trans. dip. moment [a.u.]:           [  -0.000000,    0.000000,    0.000000]
  <i|r^2|0> [a.u.]:                    [   0.000000,    0.000000,   -0.000000]

  V1^2 = 0.8849, V2^2 = 0.1151

  Important amplitudes:
     core i     occ j      vir a      vir b          v   
    ------------------------------------------------------
     5 (A) B              29 (A) B                 0.4990
     5 (A) A              29 (A) A                -0.4990
    ------------------------------------------------------
  ----------------------------------------------------------------------------


  Excited state 14 (A)                                             [converged]
  ----------------------------------------------------------------------------
  Term symbol:  15 (-) A                                    R^2 =  4.83907e-13

  Total energy:                                           -424.6061599349 a.u.
  Excitation energy:                                             314.731333 eV

  Osc. strength:                                                      0.030641
  Trans. dip. moment [a.u.]:           [   0.027331,    0.009616,    0.055986]
  <i|r^2|0> [a.u.]:                    [  -0.054394,    0.101402,   -0.038531]

  V1^2 = 0.8847, V2^2 = 0.1153

  Important amplitudes:
     core i     occ j      vir a      vir b          v   
    ------------------------------------------------------
     5 (A) A              27 (A) A                 0.5336
     5 (A) B              27 (A) B                 0.5336
    ------------------------------------------------------
  ----------------------------------------------------------------------------


  Excited state 15 (A)                                             [converged]
  ----------------------------------------------------------------------------
  Term symbol:  16 (-) A                                    R^2 =  7.66335e-13

  Total energy:                                           -424.6020457390 a.u.
  Excitation energy:                                             314.843286 eV

  Osc. strength:                                                      0.035313
  Trans. dip. moment [a.u.]:           [  -0.056206,    0.029964,    0.022828]
  <i|r^2|0> [a.u.]:                    [   0.108791,    0.317158,   -0.018564]

  V1^2 = 0.8864, V2^2 = 0.1136

  Important amplitudes:
     core i     occ j      vir a      vir b          v   
    ------------------------------------------------------
     5 (A) A              28 (A) A                -0.5397
     5 (A) B              28 (A) B                -0.5397
    ------------------------------------------------------
  ----------------------------------------------------------------------------


  Excited state 16 (A)                                             [converged]
  ----------------------------------------------------------------------------
  Term symbol:  17 (-) A                                    R^2 =  1.26897e-12

  Total energy:                                           -424.5683616938 a.u.
  Excitation energy:                                             315.759876 eV

  Osc. strength:                                                      0.014206
  Trans. dip. moment [a.u.]:           [  -0.014819,   -0.035782,    0.018341]
  <i|r^2|0> [a.u.]:                    [   0.050011,   -0.358666,    0.009338]

  V1^2 = 0.8904, V2^2 = 0.1096

  Important amplitudes:
     core i     occ j      vir a      vir b          v   
    ------------------------------------------------------
     5 (A) A              29 (A) A                 0.5963
     5 (A) B              29 (A) B                 0.5963
    ------------------------------------------------------
  ----------------------------------------------------------------------------


  Excited state 17 (A)                                             [converged]
  ----------------------------------------------------------------------------
  Term symbol:  18 (-) A                                    R^2 =  1.76998e-09

  Total energy:                                           -424.1867579326 a.u.
  Excitation energy:                                             326.143842 eV

  Osc. strength:                                                      0.000000
  Trans. dip. moment [a.u.]:           [  -0.000000,   -0.000000,    0.000000]
  <i|r^2|0> [a.u.]:                    [   0.000000,   -0.000000,    0.000000]

  V1^2 = 0.0171, V2^2 = 0.9829

  Important amplitudes:
     core i     occ j      vir a      vir b          v   
    ------------------------------------------------------
     5 (A) B   21 (A) A   22 (A) A   22 (A) B     -0.4948
     5 (A) A   21 (A) B   22 (A) A   22 (A) B     -0.4948
    ------------------------------------------------------
  ----------------------------------------------------------------------------


  Excited state 18 (A)                                             [converged]
  ----------------------------------------------------------------------------
  Term symbol:  19 (-) A                                    R^2 =  8.46831e-12

  Total energy:                                           -424.1851905291 a.u.
  Excitation energy:                                             326.186493 eV

  Osc. strength:                                                      0.000351
  Trans. dip. moment [a.u.]:           [   0.002149,    0.005882,   -0.002170]
  <i|r^2|0> [a.u.]:                    [  -0.006719,    0.060806,   -0.001182]

  V1^2 = 0.0196, V2^2 = 0.9804

  Important amplitudes:
     core i     occ j      vir a      vir b          v   
    ------------------------------------------------------
     5 (A) A   21 (A) B   22 (A) A   22 (A) B     -0.4940
     5 (A) B   21 (A) A   22 (A) A   22 (A) B      0.4940
    ------------------------------------------------------
  ----------------------------------------------------------------------------


  Excited state 19 (A)                                         [not converged]
  ----------------------------------------------------------------------------
  Term symbol:  20 (-) A                                    R^2 =  1.05280e-05

  Total energy:                                           -423.9848869670 a.u.
  Excitation energy:                                             331.637031 eV


  V1^2 = 0.8567, V2^2 = 0.1433

  Important amplitudes:
     core i     occ j      vir a      vir b          v   
    ------------------------------------------------------
     5 (A) B              30 (A) B                 0.6279
     5 (A) A              30 (A) A                -0.6278
    ------------------------------------------------------
  ----------------------------------------------------------------------------


  Excited state 20 (A)                                         [not converged]
  ----------------------------------------------------------------------------
  Term symbol:  21 (-) A                                    R^2 =  3.26259e-05

  Total energy:                                           -423.9788031716 a.u.
  Excitation energy:                                             331.802579 eV


  V1^2 = 0.8554, V2^2 = 0.1446

  Important amplitudes:
     core i     occ j      vir a      vir b          v   
    ------------------------------------------------------
     5 (A) A              30 (A) A                -0.6288
     5 (A) B              30 (A) B                -0.6288
    ------------------------------------------------------
  ----------------------------------------------------------------------------


--------------------------------------------------------------------------------
  Time of ADC calculation:  CPU 3273.78 s  wall 2041.26 s
================================================================================
 
 --------------------------------------------------------------
 
                    Orbital Energies (a.u.)
 --------------------------------------------------------------
 
 Alpha MOs
 -- Occupied --
-26.552 -26.551 -26.536 -26.014 -11.753  -1.969  -1.871  -1.847
 -1.250  -1.134  -1.045  -1.040  -0.986  -0.882  -0.878  -0.854
 -0.844  -0.826  -0.365  -0.365  -0.317
 -- Virtual --
 -0.046   0.242   0.361   0.374   0.555   0.583   0.610   0.622
  1.182   1.184   1.199   1.280   1.285   1.311   1.464   1.473
  1.476   1.477   1.492   1.521   1.606   1.714   1.715   1.807
  1.835   1.838   1.933   1.936   1.968   2.050   2.058   2.122
  2.147   2.156   2.160   2.250   2.389   2.389   2.389   2.389
  2.394   2.645   2.779   2.818   3.098   3.135   3.349   3.359
  3.385   4.040   4.418   4.736   4.824   4.871
 
 Beta MOs
 -- Occupied --
-26.552 -26.551 -26.536 -26.014 -11.753  -1.969  -1.871  -1.847
 -1.250  -1.134  -1.045  -1.040  -0.986  -0.882  -0.878  -0.854
 -0.844  -0.826  -0.365  -0.365  -0.317
 -- Virtual --
 -0.046   0.242   0.361   0.374   0.555   0.583   0.610   0.622
  1.182   1.184   1.199   1.280   1.285   1.311   1.464   1.473
  1.476   1.477   1.492   1.521   1.606   1.714   1.715   1.807
  1.835   1.838   1.933   1.936   1.968   2.050   2.058   2.122
  2.147   2.156   2.160   2.250   2.389   2.389   2.389   2.389
  2.394   2.645   2.779   2.818   3.098   3.135   3.349   3.359
  3.385   4.040   4.418   4.736   4.824   4.871
 --------------------------------------------------------------
 
          Ground-State Mulliken Net Atomic Charges

     Atom                 Charge (a.u.)    Spin (a.u.)
  --------------------------------------------------------
      1 C                     1.147957       0.000000
      2 F                    -0.118960       0.000000
      3 F                    -0.113332       0.000000
      4 F                    -0.752074       0.000000
      5 F                    -0.163590       0.000000
  --------------------------------------------------------
  Sum of atomic charges =     0.000000
  Sum of spin   charges =     0.000000

 -----------------------------------------------------------------
                    Cartesian Multipole Moments
 -----------------------------------------------------------------
    Charge (ESU x 10^10)
                 0.0000
    Dipole Moment (Debye)
         X       3.7911      Y       9.6186      Z      -3.6644
       Tot      10.9689
    Quadrupole Moments (Debye-Ang)
        XX     -30.6553     XY      -4.2011     YY       5.5456
        XZ       5.0717     YZ      -1.7951     ZZ     -25.8166
    Octopole Moments (Debye-Ang^2)
       XXX      63.5487    XXY     -50.7866    XYY       2.8879
       YYY     -74.9937    XXZ      -8.2471    XYZ       0.9818
       YYZ      -4.4627    XZZ      20.8802    YZZ     -52.4858
       ZZZ      -4.4753
    Hexadecapole Moments (Debye-Ang^3)
      XXXX    -188.0362   XXXY      84.8125   XXYY    -177.4283
      XYYY      44.5884   YYYY    -702.8040   XXXZ      25.7378
      XXYZ       8.7793   XYYZ       4.5691   YYYZ      17.9670
      XXZZ     -50.8959   XYZZ      27.5921   YYZZ    -172.2087
      XZZZ      18.3710   YZZZ      28.7582   ZZZZ    -100.7579
 -----------------------------------------------------------------
Archival summary:
1\1\tp-linux1\SP\HF\6-31G*\41\thomas\ThuMar1611:35:482017ThuMar1611:35:482017\0\\#,HF,6-31G*,\\0,1\C\F,1,1.21993\F,1,1.22246,2,118.16\F,1,1.25929,2,116.395,3,146.084,0\F,1,3.11348,2,96.9048,3,-106.155,0\\HF=-435.343798\\@

 Total job time:  2045.42s(wall), 3285.77s(cpu) 
 Thu Mar 16 11:35:48 2017

        *************************************************************
        *                                                           *
        *  Thank you very much for using Q-Chem.  Have a nice day.  *
        *                                                           *
        *************************************************************


0 sent ACK to 0 
now end server 0 ... 
cleanup process ... done
