
Running Job 1 of 2 ddtraj1t1.inp
qchem ddtraj1t1.inp_21741.0 /scratch/qchem/qchem21741/ 1
/mnt/software/qchem/bin/mpi/mpirun_qchem -machinefile /mnt/software/qchem/bin/mpi/machines -np 1 /mnt/software/qchem/exe/qcprog.exe ddtraj1t1.inp_21741.0 /scratch/qchem/qchem21741/

Process 0 of 1 is on tp-linux1 - thread support 0
initial socket setup ...start
initial socket setup ...done 
now start server 0 ... 

cmd = ssh tp-linux1 /mnt/software/qchem/bin/get_hostid 1949649842 > /scratch/qchem/qchem21741/lic.dat
                  Welcome to Q-Chem
     A Quantum Leap Into The Future Of Chemistry


 Q-Chem 4.3, Q-Chem, Inc., Pleasanton, CA (2015)

 Y. Shao,  Z. Gan,  E. Epifanovsky,  A. T. B. Gilbert,  M. Wormit,  
 J. Kussmann,  A. W. Lange,  A. Behn,  J. Deng,  X. Feng,  D. Ghosh,  
 M. Goldey,  P. R. Horn,  L. D. Jacobson,  I. Kaliman,  R. Z. Khaliullin,  
 T. Kus,  A. Landau,  J. Liu,  E. I. Proynov,  Y. M. Rhee,  R. M. Richard,  
 M. A. Rohrdanz,  R. P. Steele,  E. J. Sundstrom,  H. L. Woodcock III,  
 P. M. Zimmerman,  D. Zuev,  B. Albrecht,  E. Alguire,  B. Austin,  
 S. A. Baeppler,  G. J. O. Beran,  Y. A. Bernard,  E. Berquist,  
 K. Brandhorst,  K. B. Bravaya,  S. T. Brown,  D. Casanova,  C.-M. Chang,  
 Y. Chen,  S. H. Chien,  K. D. Closser,  D. L. Crittenden,  M. Diedenhofen,  
 R. A. DiStasio Jr.,  H. Do,  A. D. Dutoi,  R. G. Edgar,  P.-T. Fang,  
 S. Fatehi,  Q. Feng,  L. Fusti-Molnar,  A. Ghysels,  
 A. Golubeva-Zadorozhnaya,  J. Gomes,  A. Gunina,  M. W. D. Hanson-Heine,  
 P. H. P. Harbach,  A. W. Hauser,  E. G. Hohenstein,  Z. C. Holden,  K. Hui,  
 T.-C. Jagau,  H. Ji,  B. Kaduk,  K. Khistyaev,  Jaehoon Kim,  Jihan Kim,  
 R. A. King,  P. Klunzinger,  D. Kosenkov,  T. Kowalczyk,  C. M. Krauter,  
 K. U. Lao,  A. Laurent,  K. V. Lawler,  S. Lehtola,  S. V. Levchenko,  
 C. Y. Lin,  Y.-S. Lin,  F. Liu,  E. Livshits,  R. C. Lochan,  A. Luenser,  
 P. Manohar,  S. F. Manzer,  S.-P. Mao,  N. Mardirossian,  A. V. Marenich,  
 L. A. Martinez-Martinez,  S. A. Maurer,  N. J. Mayhall,  K. Nanda,  
 C. M. Oana,  R. Olivares-Amaya,  D. P. O'Neill,  J. A. Parkhill,  
 T. M. Perrine,  R. Peverati,  P. A. Pieniazek,  F. Plasser,  A. Prociuk,  
 D. R. Rehn,  E. Rosta,  N. J. Russ,  N. Sergueev,  S. M. Sharada,  
 S. Sharma,  D. W. Small,  A. Sodt,  T. Stauch,  T. Stein,  D. Stuck,  
 Y.-C. Su,  A. J. W. Thom,  T. Tsuchimochi,  L. Vogt,  O. Vydrov,  T. Wang,  
 M. A. Watson,  J. Wenzel,  A. White,  C. F. Williams,  V. Vanovschi,  
 S. Yeganeh,  S. R. Yost,  Z.-Q. You,  I. Y. Zhang,  X. Zhang,  Y. Zhao,  
 B. R. Brooks,  G. K. L. Chan,  D. M. Chipman,  C. J. Cramer,  
 W. A. Goddard III,  M. S. Gordon,  W. J. Hehre,  A. Klamt,  
 H. F. Schaefer III,  M. W. Schmidt,  C. D. Sherrill,  D. G. Truhlar,  
 A. Warshel,  X. Xu,  A. Aspuru-Guzik,  R. Baer,  A. T. Bell,  N. A. Besley,  
 J.-D. Chai,  A. Dreuw,  B. D. Dunietz,  T. R. Furlani,  S. R. Gwaltney,  
 C.-P. Hsu,  Y. Jung,  J. Kong,  D. S. Lambrecht,  W. Liang,  C. Ochsenfeld,  
 V. A. Rassolov,  L. V. Slipchenko,  J. E. Subotnik,  T. Van Voorhis,  
 J. M. Herbert,  A. I. Krylov,  P. M. W. Gill,  M. Head-Gordon

 Contributors to earlier versions of Q-Chem not listed above: 
 R. D. Adamson,  J. Baker,  E. F. C. Byrd,  A. K. Chakraborty,  C.-L. Cheng,  
 H. Dachsel,  R. J. Doerksen,  G. Hawkins,  A. Heyden,  S. Hirata,  
 G. Kedziora,  F. J. Keil,  C. Kelley,  P. P. Korambath,  W. Kurlancheek,  
 A. M. Lee,  M. S. Lee,  D. Liotard,  I. Lotan,  P. E. Maslen,  N. Nair,  
 D. Neuhauser,  R. Olson,  B. Peters,  J. Ritchie,  N. E. Schultz,  
 N. Shenvi,  A. C. Simmonett,  K. S. Thanthiriwatte,  Q. Wu,  W. Zhang

 Please cite Q-Chem as follows:
 Y. Shao et al., Mol. Phys. 113, 184-215 (2015)
 DOI: 10.1080/00268976.2014.952696

 Q-Chem 4.3.0 for Intel X86 Linux

 Parts of Q-Chem use Armadillo 5.200.1 (Boston Tea Smuggler).
 http://arma.sourceforge.net/

 Q-Chem begins on Wed Mar 15 19:16:20 2017  

Host: 
0

     Scratch files written to /scratch/qchem/qchem21741//
 Nov1815 1189b_ 19540  19532 5443   
 Parallel job on  1  processors
Processing $rem in /mnt/software/qchem/config/preferences.
 MEM_TOTAL  2000 

Checking the input file for inconsistencies... 	...done.

--------------------------------------------------------------
User input:
--------------------------------------------------------------
$comment
XAS calculation for the 2b valence excited for water using cvs-adc(2)-x + 6-311+G* basis set
job 1 - determination of HF orbitals
$end

$molecule
0 1
6  -0.702709  2.352116  -0.006978
9  0.592767  2.34757  0.001934
9  -1.130068  3.294623  0.783489
9  -1.126836  1.200165  0.419492
9  -1.128279  2.557187  -1.197226
$end

$rem
jobtype      sp
sym_ignore true
exchange     hf
basis        6-31G*
unrestricted true
$end

--------------------------------------------------------------
 ----------------------------------------------------------------
             Standard Nuclear Orientation (Angstroms)
    I     Atom           X                Y                Z
 ----------------------------------------------------------------
    1      C      -0.7027090000     2.3521160000    -0.0069780000
    2      F       0.5927670000     2.3475700000     0.0019340000
    3      F      -1.1300680000     3.2946230000     0.7834890000
    4      F      -1.1268360000     1.2001650000     0.4194920000
    5      F      -1.1282790000     2.5571870000    -1.1972260000
 ----------------------------------------------------------------
 Nuclear Repulsion Energy =   209.9726876488 hartrees
 There are       21 alpha and       21 beta electrons
 Requested basis set is 6-31G(d)
 There are 20 shells and 75 basis functions

 Total QAlloc Memory Limit   2000 MB
 Mega-Array Size        61 MB
 MEM_STATIC part        62 MB

                       Distance Matrix (Angstroms)
             C (  1)   F (  2)   F (  3)   F (  4)
   F (  2)  1.295515
   F (  3)  1.302226  2.115632
   F (  4)  1.299520  2.109011  2.125855
   F (  5)  1.280568  2.108062  2.113539  2.110755
 
 tim1(1): 
  0.000000000000000E+000
 tim1(2): 
  0.000000000000000E+000
 A cutoff of  1.0D-08 yielded    204 shell pairs
 There are      2979 function pairs
 
 -------------------------------------------------------
 OpenMP Integral Computing Module                       
 Release: version 1.0, May 2013, Q-Chem Inc. Pittsburgh 
 -------------------------------------------------------
 Integral Job Info:
 Integral job number is                      11
 Integral operator is                         1
 short-range coefficients                     0
 long-range coefficients              100000000
 Omega coefficients                           0
 if combine SR and LR in K                    0
 Integral screening is                        0
 Integral computing path is                   2
 max size of driver memory is            800000
 size of driver memory is                593474
 size of scratch memory is              2260544
 max col of scratch BK array               1296
 max len of scratch array in speh3          155
 max len of scratch index in speh4           18
 max int batch size is                      520
 min int batch size is                       52
 fixed nKL is                                52
 max L of basis functions is                  2
 order of int derivative is                   0
 number of shells is                         20
 number of basis is                          75
 number of cartesian basis is                75
 number of contracted shell pairs           204
 number of primitive shell pairs            993
 maxK2 (contraction) of shell pair           36
 max number of K2 of shell pair               1
 max number of CS2 of shell pair             26
 max number of PS2 of shell pair            180
 mem total for path MDJ                   21832
 -------------------------------------------------------
 Smallest overlap matrix eigenvalue = 1.72E-03

 Scale SEOQF with 1.000000e+00/1.000000e-01/1.000000e+00

 Standard Electronic Orientation quadrupole field applied
 Nucleus-field energy     =     0.0000000110 hartrees
 Guess from superposition of atomic densities
 Warning:  Energy on first SCF cycle will be non-variational
 An unrestricted Hartree-Fock SCF calculation will be
 performed using Pulay DIIS extrapolation
 SCF converges when DIIS error is below 1.0E-05
 using 8 threads for integral computing 
 ---------------------------------------
  Cycle       Energy         DIIS Error
 ---------------------------------------
    1    -436.7138340897      9.11E-02
    2    -435.4894820015      1.70E-02
    3    -435.6060224579      9.30E-03
    4    -435.6438742660      9.61E-04
    5    -435.6445483214      2.91E-04
    6    -435.6446348035      4.95E-05
    7    -435.6446381899      8.43E-06 Convergence criterion met
 ---------------------------------------
 <S^2> = 0.0000
 SCF time:  CPU 8.30 s  wall 12.78 s
 SCF   energy in the final basis set = -435.6446381899
 Total energy in the final basis set = -435.6446381899
 
 --------------------------------------------------------------
 
                    Orbital Energies (a.u.)
 --------------------------------------------------------------
 
 Alpha MOs
 -- Occupied --
-26.379 -26.372 -26.371 -26.371 -11.601  -1.819  -1.688  -1.678
 -1.677  -1.006  -0.894  -0.892  -0.892  -0.761  -0.760  -0.708
 -0.704  -0.704  -0.673  -0.673  -0.670
 -- Virtual --
  0.440   0.443   0.451   0.453   0.674   0.675   0.682   0.694
  1.297   1.300   1.300   1.302   1.302   1.407   1.570   1.571
  1.613   1.614   1.615   1.656   1.660   1.662   1.810   1.811
  1.822   2.090   2.092   2.093   2.119   2.121   2.220   2.223
  2.231   2.314   2.321   2.327   2.397   2.403   2.408   2.588
  2.948   2.949   2.974   3.175   3.175   3.394   3.435   3.439
  3.442   4.712   4.739   4.739   4.776   6.334
 
 Beta MOs
 -- Occupied --
-26.379 -26.372 -26.371 -26.371 -11.601  -1.819  -1.688  -1.678
 -1.677  -1.006  -0.894  -0.892  -0.892  -0.761  -0.760  -0.708
 -0.704  -0.704  -0.673  -0.673  -0.670
 -- Virtual --
  0.440   0.443   0.451   0.453   0.674   0.675   0.682   0.694
  1.297   1.300   1.300   1.302   1.302   1.407   1.570   1.571
  1.613   1.614   1.615   1.656   1.660   1.662   1.810   1.811
  1.822   2.090   2.092   2.093   2.119   2.121   2.220   2.223
  2.231   2.314   2.321   2.327   2.397   2.403   2.408   2.588
  2.948   2.949   2.974   3.175   3.175   3.394   3.435   3.439
  3.442   4.712   4.739   4.739   4.776   6.334
 --------------------------------------------------------------
 
          Ground-State Mulliken Net Atomic Charges

     Atom                 Charge (a.u.)    Spin (a.u.)
  --------------------------------------------------------
      1 C                     1.296841       0.000000
      2 F                    -0.326077       0.000000
      3 F                    -0.331716       0.000000
      4 F                    -0.329490       0.000000
      5 F                    -0.309557       0.000000
  --------------------------------------------------------
  Sum of atomic charges =     0.000000
  Sum of spin   charges =     0.000000

 -----------------------------------------------------------------
                    Cartesian Multipole Moments
 -----------------------------------------------------------------
    Charge (ESU x 10^10)
                 0.0000
    Dipole Moment (Debye)
         X      -0.0363      Y       0.0187      Z      -0.1141
       Tot       0.1212
    Quadrupole Moments (Debye-Ang)
        XX     -24.8537     XY      -0.0970     YY     -24.8666
        XZ       0.1151     YZ      -0.2947     ZZ     -24.8344
    Octopole Moments (Debye-Ang^2)
       XXX      50.6594    XXY     -58.4031    XYY      17.9500
       YYY    -175.1135    XXZ      -0.1588    XYZ       0.3006
       YYZ      -1.7364    XZZ      18.0687    YZZ     -58.8762
       ZZZ       0.6893
    Hexadecapole Moments (Debye-Ang^3)
      XXXX    -144.9611   XXXY     119.1431   XXYY    -176.0741
      XYYY     127.4114   YYYY    -898.4439   XXXZ       0.2831
      XXYZ      -0.4597   XYYZ       1.5196   YYYZ      -9.0158
      XXZZ     -38.4801   XYZZ      42.8703   YYZZ    -165.1252
      XZZZ      -0.4266   YZZZ       1.4460   ZZZZ     -75.9881
 -----------------------------------------------------------------
Archival summary:
1\1\tp-linux1\SP\HF\6-31G*\41\thomas\WedMar1519:16:332017WedMar1519:16:332017\0\\#,HF,6-31G*,\\0,1\C\F,1,1.28057\F,1,1.29551,2,109.833\F,1,1.29952,2,109.787,3,119.498,0\F,1,1.30223,2,109.83,3,-119.938,0\\HF=-435.644638\\@

 Total job time:  13.08s(wall), 10.00s(cpu) 
 Wed Mar 15 19:16:33 2017

        *************************************************************
        *                                                           *
        *  Thank you very much for using Q-Chem.  Have a nice day.  *
        *                                                           *
        *************************************************************


0 sent ACK to 0 
now end server 0 ... 
cleanup process ... done

Running Job 2 of 2 ddtraj1t1.inp
qchem ddtraj1t1.inp_21741.1 /scratch/qchem/qchem21741/ 1
/mnt/software/qchem/bin/mpi/mpirun_qchem -machinefile /mnt/software/qchem/bin/mpi/machines -np 1 /mnt/software/qchem/exe/qcprog.exe ddtraj1t1.inp_21741.1 /scratch/qchem/qchem21741/

Process 0 of 1 is on tp-linux1 - thread support 0
initial socket setup ...start
initial socket setup ...done 
now start server 0 ... 

cmd = ssh tp-linux1 /mnt/software/qchem/bin/get_hostid 1675618807 > /scratch/qchem/qchem21741/lic.dat
                  Welcome to Q-Chem
     A Quantum Leap Into The Future Of Chemistry


 Q-Chem 4.3, Q-Chem, Inc., Pleasanton, CA (2015)

 Y. Shao,  Z. Gan,  E. Epifanovsky,  A. T. B. Gilbert,  M. Wormit,  
 J. Kussmann,  A. W. Lange,  A. Behn,  J. Deng,  X. Feng,  D. Ghosh,  
 M. Goldey,  P. R. Horn,  L. D. Jacobson,  I. Kaliman,  R. Z. Khaliullin,  
 T. Kus,  A. Landau,  J. Liu,  E. I. Proynov,  Y. M. Rhee,  R. M. Richard,  
 M. A. Rohrdanz,  R. P. Steele,  E. J. Sundstrom,  H. L. Woodcock III,  
 P. M. Zimmerman,  D. Zuev,  B. Albrecht,  E. Alguire,  B. Austin,  
 S. A. Baeppler,  G. J. O. Beran,  Y. A. Bernard,  E. Berquist,  
 K. Brandhorst,  K. B. Bravaya,  S. T. Brown,  D. Casanova,  C.-M. Chang,  
 Y. Chen,  S. H. Chien,  K. D. Closser,  D. L. Crittenden,  M. Diedenhofen,  
 R. A. DiStasio Jr.,  H. Do,  A. D. Dutoi,  R. G. Edgar,  P.-T. Fang,  
 S. Fatehi,  Q. Feng,  L. Fusti-Molnar,  A. Ghysels,  
 A. Golubeva-Zadorozhnaya,  J. Gomes,  A. Gunina,  M. W. D. Hanson-Heine,  
 P. H. P. Harbach,  A. W. Hauser,  E. G. Hohenstein,  Z. C. Holden,  K. Hui,  
 T.-C. Jagau,  H. Ji,  B. Kaduk,  K. Khistyaev,  Jaehoon Kim,  Jihan Kim,  
 R. A. King,  P. Klunzinger,  D. Kosenkov,  T. Kowalczyk,  C. M. Krauter,  
 K. U. Lao,  A. Laurent,  K. V. Lawler,  S. Lehtola,  S. V. Levchenko,  
 C. Y. Lin,  Y.-S. Lin,  F. Liu,  E. Livshits,  R. C. Lochan,  A. Luenser,  
 P. Manohar,  S. F. Manzer,  S.-P. Mao,  N. Mardirossian,  A. V. Marenich,  
 L. A. Martinez-Martinez,  S. A. Maurer,  N. J. Mayhall,  K. Nanda,  
 C. M. Oana,  R. Olivares-Amaya,  D. P. O'Neill,  J. A. Parkhill,  
 T. M. Perrine,  R. Peverati,  P. A. Pieniazek,  F. Plasser,  A. Prociuk,  
 D. R. Rehn,  E. Rosta,  N. J. Russ,  N. Sergueev,  S. M. Sharada,  
 S. Sharma,  D. W. Small,  A. Sodt,  T. Stauch,  T. Stein,  D. Stuck,  
 Y.-C. Su,  A. J. W. Thom,  T. Tsuchimochi,  L. Vogt,  O. Vydrov,  T. Wang,  
 M. A. Watson,  J. Wenzel,  A. White,  C. F. Williams,  V. Vanovschi,  
 S. Yeganeh,  S. R. Yost,  Z.-Q. You,  I. Y. Zhang,  X. Zhang,  Y. Zhao,  
 B. R. Brooks,  G. K. L. Chan,  D. M. Chipman,  C. J. Cramer,  
 W. A. Goddard III,  M. S. Gordon,  W. J. Hehre,  A. Klamt,  
 H. F. Schaefer III,  M. W. Schmidt,  C. D. Sherrill,  D. G. Truhlar,  
 A. Warshel,  X. Xu,  A. Aspuru-Guzik,  R. Baer,  A. T. Bell,  N. A. Besley,  
 J.-D. Chai,  A. Dreuw,  B. D. Dunietz,  T. R. Furlani,  S. R. Gwaltney,  
 C.-P. Hsu,  Y. Jung,  J. Kong,  D. S. Lambrecht,  W. Liang,  C. Ochsenfeld,  
 V. A. Rassolov,  L. V. Slipchenko,  J. E. Subotnik,  T. Van Voorhis,  
 J. M. Herbert,  A. I. Krylov,  P. M. W. Gill,  M. Head-Gordon

 Contributors to earlier versions of Q-Chem not listed above: 
 R. D. Adamson,  J. Baker,  E. F. C. Byrd,  A. K. Chakraborty,  C.-L. Cheng,  
 H. Dachsel,  R. J. Doerksen,  G. Hawkins,  A. Heyden,  S. Hirata,  
 G. Kedziora,  F. J. Keil,  C. Kelley,  P. P. Korambath,  W. Kurlancheek,  
 A. M. Lee,  M. S. Lee,  D. Liotard,  I. Lotan,  P. E. Maslen,  N. Nair,  
 D. Neuhauser,  R. Olson,  B. Peters,  J. Ritchie,  N. E. Schultz,  
 N. Shenvi,  A. C. Simmonett,  K. S. Thanthiriwatte,  Q. Wu,  W. Zhang

 Please cite Q-Chem as follows:
 Y. Shao et al., Mol. Phys. 113, 184-215 (2015)
 DOI: 10.1080/00268976.2014.952696

 Q-Chem 4.3.0 for Intel X86 Linux

 Parts of Q-Chem use Armadillo 5.200.1 (Boston Tea Smuggler).
 http://arma.sourceforge.net/

 Q-Chem begins on Wed Mar 15 19:16:36 2017  

Host: 
0

     Scratch files written to /scratch/qchem/qchem21741//
 Nov1815 1189b_ 19540  19532 5443   
 Parallel job on  1  processors
Processing $rem in /mnt/software/qchem/config/preferences.
 MEM_TOTAL  2000 

Checking the input file for inconsistencies... 	...done.

--------------------------------------------------------------
User input:
--------------------------------------------------------------

$comment
job3 - cvs-adc(2) calculation
$end

$molecule
read
$end

$rem
mem_total 3000
mem_static 1500
sym_ignore true
scf_guess read
method cvs-adc(2)
basis 6-31G*
ee_singlets 20
cc_rest_occ 5                  !only excitations from the lowest N orbitals
unrestricted  true
max_scf_cycles 200
$end
--------------------------------------------------------------
 ----------------------------------------------------------------
             Standard Nuclear Orientation (Angstroms)
    I     Atom           X                Y                Z
 ----------------------------------------------------------------
    1      C      -0.7027090000     2.3521160000    -0.0069780000
    2      F       0.5927670000     2.3475700000     0.0019340000
    3      F      -1.1300680000     3.2946230000     0.7834890000
    4      F      -1.1268360000     1.2001650000     0.4194920000
    5      F      -1.1282790000     2.5571870000    -1.1972260000
 ----------------------------------------------------------------
 Nuclear Repulsion Energy =   209.9726876488 hartrees
 There are       21 alpha and       21 beta electrons
 Requested basis set is 6-31G(d)
 There are 20 shells and 75 basis functions

 Total QAlloc Memory Limit   3000 MB
 Mega-Array Size      1467 MB
 MEM_STATIC part      1500 MB

                       Distance Matrix (Angstroms)
             C (  1)   F (  2)   F (  3)   F (  4)
   F (  2)  1.295515
   F (  3)  1.302226  2.115632
   F (  4)  1.299520  2.109011  2.125855
   F (  5)  1.280568  2.108062  2.113539  2.110755
 
 tim1(1): 
  0.000000000000000E+000
 tim1(2): 
  0.000000000000000E+000
 A cutoff of  1.0D-11 yielded    204 shell pairs
 There are      2979 function pairs
 
 -------------------------------------------------------
 OpenMP Integral Computing Module                       
 Release: version 1.0, May 2013, Q-Chem Inc. Pittsburgh 
 -------------------------------------------------------
 Integral Job Info:
 Integral job number is                      11
 Integral operator is                         1
 short-range coefficients                     0
 long-range coefficients              100000000
 Omega coefficients                           0
 if combine SR and LR in K                    0
 Integral screening is                        0
 Integral computing path is                   2
 max size of driver memory is            800000
 size of driver memory is                593474
 size of scratch memory is              2260544
 max col of scratch BK array               1296
 max len of scratch array in speh3          155
 max len of scratch index in speh4           18
 max int batch size is                      520
 min int batch size is                       52
 fixed nKL is                                52
 max L of basis functions is                  2
 order of int derivative is                   0
 number of shells is                         20
 number of basis is                          75
 number of cartesian basis is                75
 number of contracted shell pairs           204
 number of primitive shell pairs           1075
 maxK2 (contraction) of shell pair           36
 max number of K2 of shell pair               1
 max number of CS2 of shell pair             37
 max number of PS2 of shell pair            222
 mem total for path MDJ                   21832
 -------------------------------------------------------
 Smallest overlap matrix eigenvalue = 1.72E-03

 Scale SEOQF with 1.000000e+00/1.000000e-01/1.000000e+00

 Standard Electronic Orientation quadrupole field applied
 Nucleus-field energy     =     0.0000000110 hartrees
 Guess MOs from SCF MO coefficient file
 Reading MOs from coefficient file
 Reading MOs from coefficient file
 An unrestricted Hartree-Fock SCF calculation will be
 performed using Pulay DIIS extrapolation
 SCF converges when DIIS error is below 1.0E-08
 using 8 threads for integral computing 
 ---------------------------------------
  Cycle       Energy         DIIS Error
 ---------------------------------------
    1    -435.6446382426      3.36E-06
    2    -435.6446382474      1.88E-06
    3    -435.6446382490      3.79E-07
    4    -435.6446382492      4.86E-08
    5    -435.6446382492      8.23E-09 Convergence criterion met
 ---------------------------------------
 <S^2> = 0.0000
 SCF time:  CPU 5.14 s  wall 1.36 s
 SCF   energy in the final basis set = -435.6446382492
 Total energy in the final basis set = -435.6446382492
================================================================================
|                                                                              |
|                                 A D C  M A N                                 |
|                                                                              |
 ------------------------------------------------------------------------------ 
|                                                                              |
| Components:                                                                  |
|                                                                              |
| - libvmm - 1.2-release                                                       |
|   Authors:                                                                   |
|   Evgeny Epifanovsky, Ilya Kaliman                                           |
|                                                                              |
| - libtensor - 2.4-trunk                                                      |
|   Authors:                                                                   |
|   Evgeny Epifanovsky, Michael Wormit, Dmitry Zuev, Sam Manzer                |
|                                                                              |
| - libwfa - 1.1-beta                                                          |
|   Authors:                                                                   |
|   Felix Plasser, Stefanie Baeppler, Benjamin Thomitzni, Michael Wormit       |
|                                                                              |
| - libadc - 1.0-beta                                                          |
|   Authors:                                                                   |
|   Michael Wormit, Philipp H. P. Harbach, Caroline Krauter, Dirk Rehn,        |
|   Matthias Schneider, Jan Wenzel                                             |
|                                                                              |
| - adcman - 2.4-beta                                                          |
|   Authors:                                                                   |
|   Michael Wormit, Philipp H. P. Harbach, Caroline Krauter, Dirk Rehn,        |
|   Jan Wenzel, Andreas Dreuw                                                  |
|                                                                              |
| Authors of earlier versions of ADCMAN:                                       |
| Andreas Dreuw, Jan Hendrik Starcke, Dirk Rehn, Michael Wormit                |
|                                                                              |
================================================================================

 
 Alpha MOs, Unrestricted
 -- Occupied --                  
-26.379 -26.372 -26.371 -26.371 -11.601  -1.819  -1.688  -1.678
  1 A     2 A     3 A     4 A     5 A     6 A     7 A     8 A                  
 -1.677  -1.006  -0.894  -0.892  -0.892  -0.761  -0.760  -0.708
  9 A    10 A    11 A    12 A    13 A    14 A    15 A    16 A                  
 -0.704  -0.704  -0.673  -0.673  -0.670
 17 A    18 A    19 A    20 A    21 A                                          
 -- Virtual --                   
  0.440   0.443   0.451   0.453   0.674   0.675   0.682   0.694
 22 A    23 A    24 A    25 A    26 A    27 A    28 A    29 A                  
  1.297   1.300   1.300   1.302   1.302   1.407   1.570   1.571
 30 A    31 A    32 A    33 A    34 A    35 A    36 A    37 A                  
  1.613   1.614   1.615   1.656   1.660   1.662   1.810   1.811
 38 A    39 A    40 A    41 A    42 A    43 A    44 A    45 A                  
  1.822   2.090   2.092   2.093   2.119   2.121   2.220   2.223
 46 A    47 A    48 A    49 A    50 A    51 A    52 A    53 A                  
  2.231   2.314   2.321   2.327   2.397   2.403   2.408   2.588
 54 A    55 A    56 A    57 A    58 A    59 A    60 A    61 A                  
  2.948   2.949   2.974   3.175   3.175   3.394   3.435   3.439
 62 A    63 A    64 A    65 A    66 A    67 A    68 A    69 A                  
  3.442   4.712   4.739   4.739   4.776   6.334
 70 A    71 A    72 A    73 A    74 A    75 A                                  
 
 Beta MOs, Unrestricted
 -- Occupied --                  
-26.379 -26.372 -26.371 -26.371 -11.601  -1.819  -1.688  -1.678
  1 A     2 A     3 A     4 A     5 A     6 A     7 A     8 A                  
 -1.677  -1.006  -0.894  -0.892  -0.892  -0.761  -0.760  -0.708
  9 A    10 A    11 A    12 A    13 A    14 A    15 A    16 A                  
 -0.704  -0.704  -0.673  -0.673  -0.670
 17 A    18 A    19 A    20 A    21 A                                          
 -- Virtual --                   
  0.440   0.443   0.451   0.453   0.674   0.675   0.682   0.694
 22 A    23 A    24 A    25 A    26 A    27 A    28 A    29 A                  
  1.297   1.300   1.300   1.302   1.302   1.407   1.570   1.571
 30 A    31 A    32 A    33 A    34 A    35 A    36 A    37 A                  
  1.613   1.614   1.615   1.656   1.660   1.662   1.810   1.811
 38 A    39 A    40 A    41 A    42 A    43 A    44 A    45 A                  
  1.822   2.090   2.092   2.093   2.119   2.121   2.220   2.223
 46 A    47 A    48 A    49 A    50 A    51 A    52 A    53 A                  
  2.231   2.314   2.321   2.327   2.397   2.403   2.408   2.588
 54 A    55 A    56 A    57 A    58 A    59 A    60 A    61 A                  
  2.948   2.949   2.974   3.175   3.175   3.394   3.435   3.439
 62 A    63 A    64 A    65 A    66 A    67 A    68 A    69 A                  
  3.442   4.712   4.739   4.739   4.776   6.334
 70 A    71 A    72 A    73 A    74 A    75 A                                  
 

--------------------------------------------------------------------------------
                                   HF Summary                                   
--------------------------------------------------------------------------------
  Energy:                                                 -435.6446382492 a.u.
  Dip. moment [a.u.]:                  [ -55.445393,  186.524877,    0.096470]
  Total dipole [Debye]:                                             494.601560
  <r^2> [a.u.]:                        [ 163.119041,  919.473395,   89.917034]
  Total <r^2> [a.u.]:                                              1172.509469
--------------------------------------------------------------------------------

--------------------------------------------------------------------------------
                                 MP(2) Summary                                  
--------------------------------------------------------------------------------
  Energy contribution:                                      -0.7965291286 a.u.
  Total energy:                                           -436.4411673778 a.u.
  Dip. moment [a.u.]:                  [ -55.447289,  186.525789,    0.092860]
  Total dipole [Debye]:                                             494.605151
  <r^2> [a.u.]:                        [ 163.079818,  919.426132,   89.871949]
  Total <r^2> [a.u.]:                                              1172.377899
--------------------------------------------------------------------------------
  Starting Davidson ... 
--------------------------------------------------------------------------------
   It NVec Conv  Avg. Norm  Max. Norm  Conv. states           Remark
--------------------------------------------------------------------------------
        20    0  2.119e-01  1.052e+00 11.2781 n n n n n n n n Guess.
    1   40    0  5.841e-02  7.081e-01 11.0868 n n n n n n n n 
    2   60    0  9.537e-03  1.118e-01 11.0848 n n n n n n n n 
    3   80    0  3.598e-03  3.778e-02 11.0848 n n n n n n n n 
    4  100    0  2.479e-03  3.269e-02 11.0848 n n n n n n n n 
    5   40    0  1.293e-03  1.721e-02 11.0848 n n n n n n n n Subspace collapsed.
    6   60    0  1.776e-03  2.624e-02 11.0848 n n n n n n n n 
    7   80    0  1.300e-03  1.703e-02 11.0848 n n n n n n n n 
    8  100    0  7.751e-04  1.089e-02 11.0848 n n n n n n n n 
    9   40    8  3.300e-04  4.378e-03 11.0848 y y y y y y y y Subspace collapsed.
   10   60    8  2.166e-04  3.382e-03 11.0848 y y y y y y y y 
   11   80    9  9.390e-05  1.409e-03 11.0848 y y y y y y y y 
   12  100   15  1.056e-04  1.762e-03 11.0848 y y y y y y y y 
   13   40   15  5.775e-05  8.334e-04 11.0848 y y y y y y y y Subspace collapsed.
   14   60   16  8.995e-05  1.507e-03 11.0848 y y y y y y y y 
   15   80   16  6.667e-05  1.011e-03 11.0848 y y y y y y y y 
   16  100   16  5.185e-05  8.488e-04 11.0848 y y y y y y y y 
   17   40   16  2.254e-05  3.421e-04 11.0848 y y y y y y y y Subspace collapsed.
   18   43   16  2.278e-05  3.499e-04 11.0848 y y y y y y y y 
   19   58   16  1.348e-05  2.150e-04 11.0848 y y y y y y y y 
   20   70   16  6.976e-06  1.118e-04 11.0848 y y y y y y y y 
   21   82   16  8.241e-06  1.423e-04 11.0848 y y y y y y y y 
   22   94   16  7.493e-06  1.128e-04 11.0848 y y y y y y y y 
   23  100   16  7.366e-06  1.121e-04 11.0848 y y y y y y y y 
   24   32   16  3.861e-06  6.444e-05 11.0848 y y y y y y y y Subspace collapsed.
   25   44   16  2.623e-06  3.976e-05 11.0848 y y y y y y y y 
   26   56   16  2.318e-06  3.525e-05 11.0848 y y y y y y y y 
   27   59   16  2.304e-06  3.513e-05 11.0848 y y y y y y y y 
   28   60   16  2.300e-06  3.508e-05 11.0848 y y y y y y y y 
   29   60   16  2.300e-06  3.508e-05 11.0848 y y y y y y y y 
   30   80   16  2.082e-06  3.068e-05 11.0848 y y y y y y y y 
   31   80   16  2.082e-06  3.068e-05 11.0848 y y y y y y y y 
   32   81   16  2.081e-06  3.068e-05 11.0848 y y y y y y y y 
   33   81   16  2.081e-06  3.068e-05 11.0848 y y y y y y y y 
   34   81   16  2.081e-06  3.068e-05 11.0848 y y y y y y y y 
   35  100   16  1.915e-06  3.115e-05 11.0848 y y y y y y y y 
   36   21   16  1.911e-06  3.106e-05 11.0848 y y y y y y y y Subspace collapsed.
   37   21   16  1.911e-06  3.106e-05 11.0848 y y y y y y y y 
   38   22   16  1.911e-06  3.106e-05 11.0848 y y y y y y y y 
   39   22   16  1.911e-06  3.106e-05 11.0848 y y y y y y y y 
   40   23   16  1.904e-06  3.100e-05 11.0848 y y y y y y y y 
   41   23   16  1.904e-06  3.100e-05 11.0848 y y y y y y y y 
   42   23   16  1.904e-06  3.100e-05 11.0848 y y y y y y y y 
   43   43   16  1.165e-06  2.024e-05 11.0848 y y y y y y y y 
   44   50   16  9.921e-07  1.810e-05 11.0848 y y y y y y y y 
   45   50   16  9.921e-07  1.810e-05 11.0848 y y y y y y y y 
   46   52   16  9.934e-07  1.812e-05 11.0848 y y y y y y y y 
   47   52   16  9.934e-07  1.812e-05 11.0848 y y y y y y y y 
   48   53   16  9.935e-07  1.813e-05 11.0848 y y y y y y y y 
   49   53   16  9.935e-07  1.813e-05 11.0848 y y y y y y y y 
   50   53   16  9.935e-07  1.813e-05 11.0848 y y y y y y y y 
   51   54   16  9.880e-07  1.799e-05 11.0848 y y y y y y y y 
   52   54   16  9.880e-07  1.799e-05 11.0848 y y y y y y y y 
   53   54   16  9.880e-07  1.799e-05 11.0848 y y y y y y y y 
   54   54   16  9.880e-07  1.799e-05 11.0848 y y y y y y y y 
   55   74   17  8.267e-07  1.571e-05 11.0848 y y y y y y y y 
   56   78   17  6.529e-07  1.232e-05 11.0848 y y y y y y y y 
   57   82   17  5.859e-07  1.072e-05 11.0848 y y y y y y y y 
   58   86   17  2.618e-07  3.984e-06 11.0848 y y y y y y y y 
   59   90   18  1.140e-07  1.571e-06 11.0848 y y y y y y y y 
--------------------------------------------------------------------------------
  Davidson Summary: 
 ------------------------------------------------------------
  State  0: excitation energy =  11.0848 a.u.   (converged)
  State  1: excitation energy =  11.0852 a.u.   (converged)
  State  2: excitation energy =  11.0990 a.u.   (converged)
  State  3: excitation energy =  11.1640 a.u.   (converged)
  State  4: excitation energy =  11.1646 a.u.   (converged)
  State  5: excitation energy =  11.1786 a.u.   (converged)
  State  6: excitation energy =  11.1804 a.u.   (converged)
  State  7: excitation energy =  11.2762 a.u.   (converged)
  State  8: excitation energy =  11.5073 a.u.   (converged)
  State  9: excitation energy =  11.5217 a.u.   (converged)
  State 10: excitation energy =  11.5228 a.u.   (converged)
  State 11: excitation energy =  11.5245 a.u.   (converged)
  State 12: excitation energy =  11.5355 a.u.   (converged)
  State 13: excitation energy =  11.5358 a.u.   (converged)
  State 14: excitation energy =  11.5365 a.u.   (converged)
  State 15: excitation energy =  11.5406 a.u.   (converged)
  State 16: excitation energy =  12.1343 a.u.   (converged)
  State 17: excitation energy =  12.1350 a.u.   (not converged)
  State 18: excitation energy =  12.1351 a.u.   (converged)
  State 19: excitation energy =  12.1358 a.u.   (not converged)
 ------------------------------------------------------------


--------------------------------------------------------------------------------
                             Excited State Summary
--------------------------------------------------------------------------------

  Excited state  1 (A)                                             [converged]
  ----------------------------------------------------------------------------
  Term symbol:  2 (-) A                                     R^2 =  1.16013e-13

  Total energy:                                           -425.3563996236 a.u.
  Excitation energy:                                             301.631871 eV

  Osc. strength:                                                      0.000000
  Trans. dip. moment [a.u.]:           [   0.000000,   -0.000000,   -0.000000]
  <i|r^2|0> [a.u.]:                    [  -0.000000,   -0.000000,   -0.000000]

  V1^2 = 0.9565, V2^2 = 0.0435

  Important amplitudes:
     core i     occ j      vir a      vir b          v   
    ------------------------------------------------------
     5 (A) A              22 (A) A                 0.4765
     5 (A) B              22 (A) B                -0.4765
    ------------------------------------------------------
  ----------------------------------------------------------------------------


  Excited state  2 (A)                                             [converged]
  ----------------------------------------------------------------------------
  Term symbol:  3 (-) A                                     R^2 =  1.66945e-13

  Total energy:                                           -425.3559867855 a.u.
  Excitation energy:                                             301.643105 eV

  Osc. strength:                                                      0.000000
  Trans. dip. moment [a.u.]:           [   0.000000,    0.000000,   -0.000000]
  <i|r^2|0> [a.u.]:                    [  -0.000000,    0.000000,   -0.000000]

  V1^2 = 0.9565, V2^2 = 0.0435

  Important amplitudes:
     core i     occ j      vir a      vir b          v   
    ------------------------------------------------------
     5 (A) B              23 (A) B                -0.5078
     5 (A) A              23 (A) A                 0.5078
    ------------------------------------------------------
  ----------------------------------------------------------------------------


  Excited state  3 (A)                                             [converged]
  ----------------------------------------------------------------------------
  Term symbol:  4 (-) A                                     R^2 =  1.77883e-12

  Total energy:                                           -425.3421270971 a.u.
  Excitation energy:                                             302.020246 eV

  Osc. strength:                                                      0.000000
  Trans. dip. moment [a.u.]:           [   0.000000,    0.000000,    0.000000]
  <i|r^2|0> [a.u.]:                    [  -0.000000,   -0.000000,   -0.000000]

  V1^2 = 0.9563, V2^2 = 0.0437

  Important amplitudes:
     core i     occ j      vir a      vir b          v   
    ------------------------------------------------------
     5 (A) A              25 (A) A                 0.4867
     5 (A) B              25 (A) B                -0.4867
    ------------------------------------------------------
  ----------------------------------------------------------------------------


  Excited state  4 (A)                                             [converged]
  ----------------------------------------------------------------------------
  Term symbol:  5 (-) A                                     R^2 =  1.11393e-13

  Total energy:                                           -425.2771210787 a.u.
  Excitation energy:                                             303.789150 eV

  Osc. strength:                                                      0.122485
  Trans. dip. moment [a.u.]:           [  -0.113902,    0.009418,    0.058264]
  <i|r^2|0> [a.u.]:                    [   0.310598,    0.079483,   -0.001843]

  V1^2 = 0.9493, V2^2 = 0.0507

  Important amplitudes:
     core i     occ j      vir a      vir b          v   
    ------------------------------------------------------
     5 (A) A              22 (A) A                -0.5787
     5 (A) B              22 (A) B                -0.5787
    ------------------------------------------------------
  ----------------------------------------------------------------------------


  Excited state  5 (A)                                             [converged]
  ----------------------------------------------------------------------------
  Term symbol:  6 (-) A                                     R^2 =  1.73915e-13

  Total energy:                                           -425.2765713389 a.u.
  Excitation energy:                                             303.804109 eV

  Osc. strength:                                                      0.123337
  Trans. dip. moment [a.u.]:           [  -0.019419,   -0.125954,   -0.018140]
  <i|r^2|0> [a.u.]:                    [   0.052450,   -1.122599,    0.001535]

  V1^2 = 0.9495, V2^2 = 0.0505

  Important amplitudes:
     core i     occ j      vir a      vir b          v   
    ------------------------------------------------------
     5 (A) B              23 (A) B                -0.6014
     5 (A) A              23 (A) A                -0.6014
    ------------------------------------------------------
  ----------------------------------------------------------------------------


  Excited state  6 (A)                                             [converged]
  ----------------------------------------------------------------------------
  Term symbol:  7 (-) A                                     R^2 =  2.54519e-13

  Total energy:                                           -425.2626066333 a.u.
  Excitation energy:                                             304.184108 eV

  Osc. strength:                                                      0.122039
  Trans. dip. moment [a.u.]:           [   0.055659,   -0.024863,    0.112516]
  <i|r^2|0> [a.u.]:                    [  -0.149771,   -0.222619,    0.005230]

  V1^2 = 0.9489, V2^2 = 0.0511

  Important amplitudes:
     core i     occ j      vir a      vir b          v   
    ------------------------------------------------------
     5 (A) B              25 (A) B                 0.5194
     5 (A) A              25 (A) A                 0.5194
    ------------------------------------------------------
  ----------------------------------------------------------------------------


  Excited state  7 (A)                                             [converged]
  ----------------------------------------------------------------------------
  Term symbol:  8 (-) A                                     R^2 =  2.38651e-13

  Total energy:                                           -425.2607422866 a.u.
  Excitation energy:                                             304.234839 eV

  Osc. strength:                                                      0.000000
  Trans. dip. moment [a.u.]:           [  -0.000000,    0.000000,   -0.000000]
  <i|r^2|0> [a.u.]:                    [   0.000000,    0.000000,   -0.000000]

  V1^2 = 0.9351, V2^2 = 0.0649

  Important amplitudes:
     core i     occ j      vir a      vir b          v   
    ------------------------------------------------------
     5 (A) A              24 (A) A                 0.4634
     5 (A) B              24 (A) B                -0.4634
    ------------------------------------------------------
  ----------------------------------------------------------------------------


  Excited state  8 (A)                                             [converged]
  ----------------------------------------------------------------------------
  Term symbol:  9 (-) A                                     R^2 =  8.12067e-14

  Total energy:                                           -425.1650101673 a.u.
  Excitation energy:                                             306.839843 eV

  Osc. strength:                                                      0.000448
  Trans. dip. moment [a.u.]:           [  -0.002300,    0.000868,    0.007322]
  <i|r^2|0> [a.u.]:                    [  -0.019508,   -0.018439,   -0.025354]

  V1^2 = 0.9175, V2^2 = 0.0825

  Important amplitudes:
     core i     occ j      vir a      vir b          v   
    ------------------------------------------------------
     5 (A) A              24 (A) A                -0.5088
     5 (A) B              24 (A) B                -0.5088
    ------------------------------------------------------
  ----------------------------------------------------------------------------


  Excited state  9 (A)                                             [converged]
  ----------------------------------------------------------------------------
  Term symbol:  10 (-) A                                    R^2 =  1.26814e-13

  Total energy:                                           -424.9338716376 a.u.
  Excitation energy:                                             313.129442 eV

  Osc. strength:                                                      0.000000
  Trans. dip. moment [a.u.]:           [  -0.000000,    0.000000,    0.000000]
  <i|r^2|0> [a.u.]:                    [   0.000000,    0.000000,    0.000000]

  V1^2 = 0.8980, V2^2 = 0.1020

  Important amplitudes:
     core i     occ j      vir a      vir b          v   
    ------------------------------------------------------
     5 (A) A              29 (A) A                 0.5730
     5 (A) B              29 (A) B                -0.5730
    ------------------------------------------------------
  ----------------------------------------------------------------------------


  Excited state 10 (A)                                             [converged]
  ----------------------------------------------------------------------------
  Term symbol:  11 (-) A                                    R^2 =  1.57235e-13

  Total energy:                                           -424.9194834781 a.u.
  Excitation energy:                                             313.520964 eV

  Osc. strength:                                                      0.000000
  Trans. dip. moment [a.u.]:           [   0.000000,    0.000000,   -0.000000]
  <i|r^2|0> [a.u.]:                    [  -0.000000,    0.000000,    0.000000]

  V1^2 = 0.8910, V2^2 = 0.1090

  Important amplitudes:
     core i     occ j      vir a      vir b          v   
    ------------------------------------------------------
     5 (A) A              27 (A) A                -0.5622
     5 (A) B              27 (A) B                 0.5622
    ------------------------------------------------------
  ----------------------------------------------------------------------------


  Excited state 11 (A)                                             [converged]
  ----------------------------------------------------------------------------
  Term symbol:  12 (-) A                                    R^2 =  1.65487e-13

  Total energy:                                           -424.9183544918 a.u.
  Excitation energy:                                             313.551685 eV

  Osc. strength:                                                      0.000000
  Trans. dip. moment [a.u.]:           [   0.000000,   -0.000000,   -0.000000]
  <i|r^2|0> [a.u.]:                    [  -0.000000,   -0.000000,   -0.000000]

  V1^2 = 0.8906, V2^2 = 0.1094

  Important amplitudes:
     core i     occ j      vir a      vir b          v   
    ------------------------------------------------------
     5 (A) A              26 (A) A                 0.5641
     5 (A) B              26 (A) B                -0.5641
    ------------------------------------------------------
  ----------------------------------------------------------------------------


  Excited state 12 (A)                                             [converged]
  ----------------------------------------------------------------------------
  Term symbol:  13 (-) A                                    R^2 =  2.40707e-13

  Total energy:                                           -424.9166720684 a.u.
  Excitation energy:                                             313.597466 eV

  Osc. strength:                                                      0.000000
  Trans. dip. moment [a.u.]:           [  -0.000000,   -0.000000,   -0.000000]
  <i|r^2|0> [a.u.]:                    [   0.000000,   -0.000000,   -0.000000]

  V1^2 = 0.8908, V2^2 = 0.1092

  Important amplitudes:
     core i     occ j      vir a      vir b          v   
    ------------------------------------------------------
     5 (A) A              28 (A) A                 0.5492
     5 (A) B              28 (A) B                -0.5492
    ------------------------------------------------------
  ----------------------------------------------------------------------------


  Excited state 13 (A)                                             [converged]
  ----------------------------------------------------------------------------
  Term symbol:  14 (-) A                                    R^2 =  7.53705e-13

  Total energy:                                           -424.9056885573 a.u.
  Excitation energy:                                             313.896343 eV

  Osc. strength:                                                      0.016236
  Trans. dip. moment [a.u.]:           [   0.031282,   -0.007320,    0.032850]
  <i|r^2|0> [a.u.]:                    [  -0.097258,   -0.079150,   -0.014202]

  V1^2 = 0.8983, V2^2 = 0.1017

  Important amplitudes:
     core i     occ j      vir a      vir b          v   
    ------------------------------------------------------
     5 (A) B              29 (A) B                -0.4626
     5 (A) A              29 (A) A                -0.4626
    ------------------------------------------------------
  ----------------------------------------------------------------------------


  Excited state 14 (A)                                             [converged]
  ----------------------------------------------------------------------------
  Term symbol:  15 (-) A                                    R^2 =  2.08893e-13

  Total energy:                                           -424.9053467668 a.u.
  Excitation energy:                                             313.905643 eV

  Osc. strength:                                                      0.025238
  Trans. dip. moment [a.u.]:           [  -0.046900,   -0.019731,    0.026319]
  <i|r^2|0> [a.u.]:                    [   0.120286,   -0.180367,   -0.005305]

  V1^2 = 0.8940, V2^2 = 0.1060

  Important amplitudes:
     core i     occ j      vir a      vir b          v   
    ------------------------------------------------------
     5 (A) B              27 (A) B                 0.5723
     5 (A) A              27 (A) A                 0.5723
    ------------------------------------------------------
  ----------------------------------------------------------------------------


  Excited state 15 (A)                                             [converged]
  ----------------------------------------------------------------------------
  Term symbol:  16 (-) A                                    R^2 =  7.09301e-13

  Total energy:                                           -424.9047043937 a.u.
  Excitation energy:                                             313.923123 eV

  Osc. strength:                                                      0.025395
  Trans. dip. moment [a.u.]:           [   0.011526,   -0.053536,   -0.017407]
  <i|r^2|0> [a.u.]:                    [  -0.028848,   -0.474099,    0.002391]

  V1^2 = 0.8932, V2^2 = 0.1068

  Important amplitudes:
     core i     occ j      vir a      vir b          v   
    ------------------------------------------------------
     5 (A) B              26 (A) B                 0.5951
     5 (A) A              26 (A) A                 0.5951
    ------------------------------------------------------
  ----------------------------------------------------------------------------


  Excited state 16 (A)                                             [converged]
  ----------------------------------------------------------------------------
  Term symbol:  17 (-) A                                    R^2 =  3.13800e-13

  Total energy:                                           -424.9005527671 a.u.
  Excitation energy:                                             314.036095 eV

  Osc. strength:                                                      0.012048
  Trans. dip. moment [a.u.]:           [   0.011891,   -0.005686,    0.037313]
  <i|r^2|0> [a.u.]:                    [  -0.016710,   -0.035643,    0.014249]

  V1^2 = 0.8980, V2^2 = 0.1020

  Important amplitudes:
     core i     occ j      vir a      vir b          v   
    ------------------------------------------------------
     5 (A) B              28 (A) B                -0.4763
     5 (A) A              28 (A) A                -0.4763
    ------------------------------------------------------
  ----------------------------------------------------------------------------


  Excited state 17 (A)                                             [converged]
  ----------------------------------------------------------------------------
  Term symbol:  18 (-) A                                    R^2 =  9.83258e-07

  Total energy:                                           -424.3068774028 a.u.
  Excitation energy:                                             330.190823 eV

  Osc. strength:                                                      0.000000
  Trans. dip. moment [a.u.]:           [  -0.000000,   -0.000000,   -0.000000]
  <i|r^2|0> [a.u.]:                    [   0.000000,   -0.000000,    0.000000]

  V1^2 = 0.8875, V2^2 = 0.1125

  Important amplitudes:
     core i     occ j      vir a      vir b          v   
    ------------------------------------------------------
     5 (A) B              31 (A) B                 0.5687
     5 (A) A              31 (A) A                -0.5687
    ------------------------------------------------------
  ----------------------------------------------------------------------------


  Excited state 18 (A)                                         [not converged]
  ----------------------------------------------------------------------------
  Term symbol:  19 (-) A                                    R^2 =  1.31241e-06

  Total energy:                                           -424.3061500974 a.u.
  Excitation energy:                                             330.210614 eV


  V1^2 = 0.8875, V2^2 = 0.1125

  Important amplitudes:
     core i     occ j      vir a      vir b          v   
    ------------------------------------------------------
     5 (A) B              32 (A) B                -0.4632
     5 (A) A              32 (A) A                 0.4632
    ------------------------------------------------------
  ----------------------------------------------------------------------------


  Excited state 19 (A)                                             [converged]
  ----------------------------------------------------------------------------
  Term symbol:  20 (-) A                                    R^2 =  2.05585e-07

  Total energy:                                           -424.3060813739 a.u.
  Excitation energy:                                             330.212484 eV

  Osc. strength:                                                      0.000001
  Trans. dip. moment [a.u.]:           [   0.000020,    0.000305,    0.000203]
  <i|r^2|0> [a.u.]:                    [  -0.000061,    0.006104,   -0.003321]

  V1^2 = 0.8873, V2^2 = 0.1127

  Important amplitudes:
     core i     occ j      vir a      vir b          v   
    ------------------------------------------------------
     5 (A) A              31 (A) A                 0.5691
     5 (A) B              31 (A) B                 0.5691
    ------------------------------------------------------
  ----------------------------------------------------------------------------


  Excited state 20 (A)                                         [not converged]
  ----------------------------------------------------------------------------
  Term symbol:  21 (-) A                                    R^2 =  1.57129e-06

  Total energy:                                           -424.3053415291 a.u.
  Excitation energy:                                             330.232616 eV


  V1^2 = 0.8874, V2^2 = 0.1126

  Important amplitudes:
     core i     occ j      vir a      vir b          v   
    ------------------------------------------------------
     5 (A) A              32 (A) A                 0.4629
     5 (A) B              32 (A) B                 0.4629
    ------------------------------------------------------
  ----------------------------------------------------------------------------


--------------------------------------------------------------------------------
  Time of ADC calculation:  CPU 3100.41 s  wall 1887.89 s
================================================================================
 
 --------------------------------------------------------------
 
                    Orbital Energies (a.u.)
 --------------------------------------------------------------
 
 Alpha MOs
 -- Occupied --
-26.379 -26.372 -26.371 -26.371 -11.601  -1.819  -1.688  -1.678
 -1.677  -1.006  -0.894  -0.892  -0.892  -0.761  -0.760  -0.708
 -0.704  -0.704  -0.673  -0.673  -0.670
 -- Virtual --
  0.440   0.443   0.451   0.453   0.674   0.675   0.682   0.694
  1.297   1.300   1.300   1.302   1.302   1.407   1.570   1.571
  1.613   1.614   1.615   1.656   1.660   1.662   1.810   1.811
  1.822   2.090   2.092   2.093   2.119   2.121   2.220   2.223
  2.231   2.314   2.321   2.327   2.397   2.403   2.408   2.588
  2.948   2.949   2.974   3.175   3.175   3.394   3.435   3.439
  3.442   4.712   4.739   4.739   4.776   6.334
 
 Beta MOs
 -- Occupied --
-26.379 -26.372 -26.371 -26.371 -11.601  -1.819  -1.688  -1.678
 -1.677  -1.006  -0.894  -0.892  -0.892  -0.761  -0.760  -0.708
 -0.704  -0.704  -0.673  -0.673  -0.670
 -- Virtual --
  0.440   0.443   0.451   0.453   0.674   0.675   0.682   0.694
  1.297   1.300   1.300   1.302   1.302   1.407   1.570   1.571
  1.613   1.614   1.615   1.656   1.660   1.662   1.810   1.811
  1.822   2.090   2.092   2.093   2.119   2.121   2.220   2.223
  2.231   2.314   2.321   2.327   2.397   2.403   2.408   2.588
  2.948   2.949   2.974   3.175   3.175   3.394   3.435   3.439
  3.442   4.712   4.739   4.739   4.776   6.334
 --------------------------------------------------------------
 
          Ground-State Mulliken Net Atomic Charges

     Atom                 Charge (a.u.)    Spin (a.u.)
  --------------------------------------------------------
      1 C                     1.296829       0.000000
      2 F                    -0.326075       0.000000
      3 F                    -0.331687       0.000000
      4 F                    -0.329476       0.000000
      5 F                    -0.309592       0.000000
  --------------------------------------------------------
  Sum of atomic charges =     0.000000
  Sum of spin   charges =     0.000000

 -----------------------------------------------------------------
                    Cartesian Multipole Moments
 -----------------------------------------------------------------
    Charge (ESU x 10^10)
                 0.0000
    Dipole Moment (Debye)
         X      -0.0363      Y       0.0187      Z      -0.1139
       Tot       0.1210
    Quadrupole Moments (Debye-Ang)
        XX     -24.8537     XY      -0.0970     YY     -24.8663
        XZ       0.1149     YZ      -0.2941     ZZ     -24.8345
    Octopole Moments (Debye-Ang^2)
       XXX      50.6592    XXY     -58.4030    XYY      17.9497
       YYY    -175.1121    XXZ      -0.1586    XYZ       0.2998
       YYZ      -1.7347    XZZ      18.0689    YZZ     -58.8765
       ZZZ       0.6894
    Hexadecapole Moments (Debye-Ang^3)
      XXXX    -144.9608   XXXY     119.1427   XXYY    -176.0736
      XYYY     127.4098   YYYY    -898.4372   XXXZ       0.2829
      XXYZ      -0.4590   XYYZ       1.5175   YYYZ      -9.0116
      XXZZ     -38.4802   XYZZ      42.8707   YYZZ    -165.1256
      XZZZ      -0.4268   YZZZ       1.4462   ZZZZ     -75.9881
 -----------------------------------------------------------------
Archival summary:
1\1\tp-linux1\SP\HF\6-31G*\41\thomas\WedMar1519:48:072017WedMar1519:48:072017\0\\#,HF,6-31G*,\\0,1\C\F,1,1.28057\F,1,1.29551,2,109.833\F,1,1.29952,2,109.787,3,119.498,0\F,1,1.30223,2,109.83,3,-119.938,0\\HF=-435.644638\\@

 Total job time:  1891.32s(wall), 3109.82s(cpu) 
 Wed Mar 15 19:48:07 2017

        *************************************************************
        *                                                           *
        *  Thank you very much for using Q-Chem.  Have a nice day.  *
        *                                                           *
        *************************************************************


0 sent ACK to 0 
now end server 0 ... 
cleanup process ... done
