
Running Job 1 of 2 ddtraj2t35.inp
qchem ddtraj2t35.inp_15521.0 /scratch/qchem/qchem15521/ 1
/mnt/software/qchem/bin/mpi/mpirun_qchem -machinefile /mnt/software/qchem/bin/mpi/machines -np 1 /mnt/software/qchem/exe/qcprog.exe ddtraj2t35.inp_15521.0 /scratch/qchem/qchem15521/

Process 0 of 1 is on tp-linux1 - thread support 0
initial socket setup ...start
initial socket setup ...done 
now start server 0 ... 

cmd = ssh tp-linux1 /mnt/software/qchem/bin/get_hostid 1323491384 > /scratch/qchem/qchem15521/lic.dat
                  Welcome to Q-Chem
     A Quantum Leap Into The Future Of Chemistry


 Q-Chem 4.3, Q-Chem, Inc., Pleasanton, CA (2015)

 Y. Shao,  Z. Gan,  E. Epifanovsky,  A. T. B. Gilbert,  M. Wormit,  
 J. Kussmann,  A. W. Lange,  A. Behn,  J. Deng,  X. Feng,  D. Ghosh,  
 M. Goldey,  P. R. Horn,  L. D. Jacobson,  I. Kaliman,  R. Z. Khaliullin,  
 T. Kus,  A. Landau,  J. Liu,  E. I. Proynov,  Y. M. Rhee,  R. M. Richard,  
 M. A. Rohrdanz,  R. P. Steele,  E. J. Sundstrom,  H. L. Woodcock III,  
 P. M. Zimmerman,  D. Zuev,  B. Albrecht,  E. Alguire,  B. Austin,  
 S. A. Baeppler,  G. J. O. Beran,  Y. A. Bernard,  E. Berquist,  
 K. Brandhorst,  K. B. Bravaya,  S. T. Brown,  D. Casanova,  C.-M. Chang,  
 Y. Chen,  S. H. Chien,  K. D. Closser,  D. L. Crittenden,  M. Diedenhofen,  
 R. A. DiStasio Jr.,  H. Do,  A. D. Dutoi,  R. G. Edgar,  P.-T. Fang,  
 S. Fatehi,  Q. Feng,  L. Fusti-Molnar,  A. Ghysels,  
 A. Golubeva-Zadorozhnaya,  J. Gomes,  A. Gunina,  M. W. D. Hanson-Heine,  
 P. H. P. Harbach,  A. W. Hauser,  E. G. Hohenstein,  Z. C. Holden,  K. Hui,  
 T.-C. Jagau,  H. Ji,  B. Kaduk,  K. Khistyaev,  Jaehoon Kim,  Jihan Kim,  
 R. A. King,  P. Klunzinger,  D. Kosenkov,  T. Kowalczyk,  C. M. Krauter,  
 K. U. Lao,  A. Laurent,  K. V. Lawler,  S. Lehtola,  S. V. Levchenko,  
 C. Y. Lin,  Y.-S. Lin,  F. Liu,  E. Livshits,  R. C. Lochan,  A. Luenser,  
 P. Manohar,  S. F. Manzer,  S.-P. Mao,  N. Mardirossian,  A. V. Marenich,  
 L. A. Martinez-Martinez,  S. A. Maurer,  N. J. Mayhall,  K. Nanda,  
 C. M. Oana,  R. Olivares-Amaya,  D. P. O'Neill,  J. A. Parkhill,  
 T. M. Perrine,  R. Peverati,  P. A. Pieniazek,  F. Plasser,  A. Prociuk,  
 D. R. Rehn,  E. Rosta,  N. J. Russ,  N. Sergueev,  S. M. Sharada,  
 S. Sharma,  D. W. Small,  A. Sodt,  T. Stauch,  T. Stein,  D. Stuck,  
 Y.-C. Su,  A. J. W. Thom,  T. Tsuchimochi,  L. Vogt,  O. Vydrov,  T. Wang,  
 M. A. Watson,  J. Wenzel,  A. White,  C. F. Williams,  V. Vanovschi,  
 S. Yeganeh,  S. R. Yost,  Z.-Q. You,  I. Y. Zhang,  X. Zhang,  Y. Zhao,  
 B. R. Brooks,  G. K. L. Chan,  D. M. Chipman,  C. J. Cramer,  
 W. A. Goddard III,  M. S. Gordon,  W. J. Hehre,  A. Klamt,  
 H. F. Schaefer III,  M. W. Schmidt,  C. D. Sherrill,  D. G. Truhlar,  
 A. Warshel,  X. Xu,  A. Aspuru-Guzik,  R. Baer,  A. T. Bell,  N. A. Besley,  
 J.-D. Chai,  A. Dreuw,  B. D. Dunietz,  T. R. Furlani,  S. R. Gwaltney,  
 C.-P. Hsu,  Y. Jung,  J. Kong,  D. S. Lambrecht,  W. Liang,  C. Ochsenfeld,  
 V. A. Rassolov,  L. V. Slipchenko,  J. E. Subotnik,  T. Van Voorhis,  
 J. M. Herbert,  A. I. Krylov,  P. M. W. Gill,  M. Head-Gordon

 Contributors to earlier versions of Q-Chem not listed above: 
 R. D. Adamson,  J. Baker,  E. F. C. Byrd,  A. K. Chakraborty,  C.-L. Cheng,  
 H. Dachsel,  R. J. Doerksen,  G. Hawkins,  A. Heyden,  S. Hirata,  
 G. Kedziora,  F. J. Keil,  C. Kelley,  P. P. Korambath,  W. Kurlancheek,  
 A. M. Lee,  M. S. Lee,  D. Liotard,  I. Lotan,  P. E. Maslen,  N. Nair,  
 D. Neuhauser,  R. Olson,  B. Peters,  J. Ritchie,  N. E. Schultz,  
 N. Shenvi,  A. C. Simmonett,  K. S. Thanthiriwatte,  Q. Wu,  W. Zhang

 Please cite Q-Chem as follows:
 Y. Shao et al., Mol. Phys. 113, 184-215 (2015)
 DOI: 10.1080/00268976.2014.952696

 Q-Chem 4.3.0 for Intel X86 Linux

 Parts of Q-Chem use Armadillo 5.200.1 (Boston Tea Smuggler).
 http://arma.sourceforge.net/

 Q-Chem begins on Fri Mar 17 11:15:48 2017  

Host: 
0

     Scratch files written to /scratch/qchem/qchem15521//
 Nov1815 1189b_ 19540  19532 5443   
 Parallel job on  1  processors
Processing $rem in /mnt/software/qchem/config/preferences.
 MEM_TOTAL  2000 

Checking the input file for inconsistencies... 	...done.

--------------------------------------------------------------
User input:
--------------------------------------------------------------
$comment
XAS calculation for the 2b valence excited for water using cvs-adc(2)-x + 6-311+G* basis set
job 1 - determination of HF orbitals
$end

$molecule
0 1
6  -0.607389  2.721088  -0.158023
9  0.642245  2.515381  -0.053673
9  -1.090596  3.549862  0.717854
9  -1.361296  0.316159  0.738595
9  -1.085202  2.801337  -1.291045
$end

$rem
jobtype      sp
sym_ignore true
exchange     hf
basis        6-31G*
unrestricted true
$end

--------------------------------------------------------------
 ----------------------------------------------------------------
             Standard Nuclear Orientation (Angstroms)
    I     Atom           X                Y                Z
 ----------------------------------------------------------------
    1      C      -0.6073890000     2.7210880000    -0.1580230000
    2      F       0.6422450000     2.5153810000    -0.0536730000
    3      F      -1.0905960000     3.5498620000     0.7178540000
    4      F      -1.3612960000     0.3161590000     0.7385950000
    5      F      -1.0852020000     2.8013370000    -1.2910450000
 ----------------------------------------------------------------
 Nuclear Repulsion Energy =   178.6213289424 hartrees
 There are       21 alpha and       21 beta electrons
 Requested basis set is 6-31G(d)
 There are 20 shells and 75 basis functions

 Total QAlloc Memory Limit   2000 MB
 Mega-Array Size        61 MB
 MEM_STATIC part        62 MB

                       Distance Matrix (Angstroms)
             C (  1)   F (  2)   F (  3)   F (  4)
   F (  2)  1.270744
   F (  3)  1.299044  2.160589
   F (  4)  2.675067  3.078708  3.245080
   F (  5)  1.232268  2.144046  2.143827  3.220524
 
 tim1(1): 
  0.000000000000000E+000
 tim1(2): 
  0.000000000000000E+000
 A cutoff of  1.0D-08 yielded    185 shell pairs
 There are      2858 function pairs
 
 -------------------------------------------------------
 OpenMP Integral Computing Module                       
 Release: version 1.0, May 2013, Q-Chem Inc. Pittsburgh 
 -------------------------------------------------------
 Integral Job Info:
 Integral job number is                      11
 Integral operator is                         1
 short-range coefficients                     0
 long-range coefficients              100000000
 Omega coefficients                           0
 if combine SR and LR in K                    0
 Integral screening is                        0
 Integral computing path is                   2
 max size of driver memory is            800000
 size of driver memory is                593474
 size of scratch memory is              2260544
 max col of scratch BK array               1296
 max len of scratch array in speh3          155
 max len of scratch index in speh4           18
 max int batch size is                      520
 min int batch size is                       52
 fixed nKL is                                52
 max L of basis functions is                  2
 order of int derivative is                   0
 number of shells is                         20
 number of basis is                          75
 number of cartesian basis is                75
 number of contracted shell pairs           185
 number of primitive shell pairs            888
 maxK2 (contraction) of shell pair           36
 max number of K2 of shell pair               1
 max number of CS2 of shell pair             31
 max number of PS2 of shell pair            180
 mem total for path MDJ                   18100
 -------------------------------------------------------
 Smallest overlap matrix eigenvalue = 3.64E-03

 Scale SEOQF with 1.000000e+00/1.000000e-01/1.000000e+00

 Standard Electronic Orientation quadrupole field applied
 Nucleus-field energy     =     0.0000000096 hartrees
 Guess from superposition of atomic densities
 Warning:  Energy on first SCF cycle will be non-variational
 An unrestricted Hartree-Fock SCF calculation will be
 performed using Pulay DIIS extrapolation
 SCF converges when DIIS error is below 1.0E-05
 using 8 threads for integral computing 
 ---------------------------------------
  Cycle       Energy         DIIS Error
 ---------------------------------------
    1    -436.0306853391      8.27E-02
    2    -435.1087017140      2.12E-02
    3    -434.8424365197      3.02E-02
    4    -435.3714039471      5.19E-03
    5    -435.3855719551      1.55E-03
    6    -435.3870736087      2.60E-04
    7    -435.3871719877      1.05E-04
    8    -435.3871856696      3.24E-05
    9    -435.3871892458      1.64E-05
   10    -435.3871905969      1.03E-05
   11    -435.3871913175      5.26E-06 Convergence criterion met
 ---------------------------------------
 <S^2> = 0.0000
 SCF time:  CPU 12.50 s  wall 2.58 s
 SCF   energy in the final basis set = -435.3871913175
 Total energy in the final basis set = -435.3871913175
 
 --------------------------------------------------------------
 
                    Orbital Energies (a.u.)
 --------------------------------------------------------------
 
 Alpha MOs
 -- Occupied --
-26.528 -26.506 -26.498 -26.097 -11.730  -1.915  -1.821  -1.791
 -1.319  -1.098  -0.997  -0.990  -0.938  -0.843  -0.837  -0.819
 -0.805  -0.790  -0.435  -0.435  -0.378
 -- Virtual --
 -0.027   0.263   0.353   0.378   0.587   0.599   0.632   0.667
  1.200   1.220   1.227   1.289   1.295   1.331   1.495   1.502
  1.511   1.513   1.525   1.539   1.647   1.650   1.659   1.850
  1.856   1.872   1.963   1.969   1.995   2.058   2.072   2.106
  2.147   2.159   2.197   2.236   2.329   2.329   2.358   2.364
  2.419   2.716   2.718   2.781   3.055   3.095   3.313   3.341
  3.392   4.047   4.502   4.653   4.763   4.927
 
 Beta MOs
 -- Occupied --
-26.528 -26.506 -26.498 -26.097 -11.730  -1.915  -1.821  -1.791
 -1.319  -1.098  -0.997  -0.990  -0.938  -0.843  -0.837  -0.819
 -0.805  -0.790  -0.435  -0.435  -0.378
 -- Virtual --
 -0.027   0.263   0.353   0.378   0.587   0.599   0.632   0.667
  1.200   1.220   1.227   1.289   1.295   1.331   1.495   1.502
  1.511   1.513   1.525   1.539   1.647   1.650   1.659   1.850
  1.856   1.872   1.963   1.969   1.995   2.058   2.072   2.106
  2.147   2.159   2.197   2.236   2.329   2.329   2.358   2.364
  2.419   2.716   2.718   2.781   3.055   3.095   3.313   3.341
  3.392   4.047   4.502   4.653   4.763   4.927
 --------------------------------------------------------------
 
          Ground-State Mulliken Net Atomic Charges

     Atom                 Charge (a.u.)    Spin (a.u.)
  --------------------------------------------------------
      1 C                     1.157404       0.000000
      2 F                    -0.176720       0.000000
      3 F                    -0.209123       0.000000
      4 F                    -0.634531       0.000000
      5 F                    -0.137030       0.000000
  --------------------------------------------------------
  Sum of atomic charges =     0.000000
  Sum of spin   charges =     0.000000

 -----------------------------------------------------------------
                    Cartesian Multipole Moments
 -----------------------------------------------------------------
    Charge (ESU x 10^10)
                 0.0000
    Dipole Moment (Debye)
         X       2.1999      Y       7.0615      Z      -2.9353
       Tot       7.9574
    Quadrupole Moments (Debye-Ang)
        XX     -27.7203     XY      -3.3826     YY      -1.5829
        XZ       3.4579     YZ      -3.0484     ZZ     -24.7452
    Octopole Moments (Debye-Ang^2)
       XXX      57.8154    XXY     -53.0609    XYY       4.6415
       YYY    -101.5442    XXZ      -4.8764    XYZ       2.6305
       YYZ      -7.2441    XZZ      18.7571    YZZ     -53.8371
       ZZZ      -3.1479
    Hexadecapole Moments (Debye-Ang^3)
      XXXX    -166.1723   XXXY     102.5191   XXYY    -175.9091
      XYYY      68.7151   YYYY    -771.4372   XXXZ      13.0950
      XXYZ       3.0140   XYYZ       6.3822   YYYZ      -2.4893
      XXZZ     -43.4230   XYZZ      33.5450   YYZZ    -168.8099
      XZZZ       9.4785   YZZZ      15.6801   ZZZZ     -88.6826
 -----------------------------------------------------------------
Archival summary:
1\1\tp-linux1\SP\HF\6-31G*\41\thomas\FriMar1711:15:512017FriMar1711:15:512017\0\\#,HF,6-31G*,\\0,1\C\F,1,1.23227\F,1,1.27074,2,117.863\F,1,1.29904,2,115.732,3,-140.737,0\F,1,2.67507,2,104.919,3,105.23,0\\HF=-435.387191\\@

 Total job time:  2.90s(wall), 14.23s(cpu) 
 Fri Mar 17 11:15:51 2017

        *************************************************************
        *                                                           *
        *  Thank you very much for using Q-Chem.  Have a nice day.  *
        *                                                           *
        *************************************************************


0 sent ACK to 0 
now end server 0 ... 
cleanup process ... done

Running Job 2 of 2 ddtraj2t35.inp
qchem ddtraj2t35.inp_15521.1 /scratch/qchem/qchem15521/ 1
/mnt/software/qchem/bin/mpi/mpirun_qchem -machinefile /mnt/software/qchem/bin/mpi/machines -np 1 /mnt/software/qchem/exe/qcprog.exe ddtraj2t35.inp_15521.1 /scratch/qchem/qchem15521/

Process 0 of 1 is on tp-linux1 - thread support 0
initial socket setup ...start
initial socket setup ...done 
now start server 0 ... 

cmd = ssh tp-linux1 /mnt/software/qchem/bin/get_hostid 564852434 > /scratch/qchem/qchem15521/lic.dat
                  Welcome to Q-Chem
     A Quantum Leap Into The Future Of Chemistry


 Q-Chem 4.3, Q-Chem, Inc., Pleasanton, CA (2015)

 Y. Shao,  Z. Gan,  E. Epifanovsky,  A. T. B. Gilbert,  M. Wormit,  
 J. Kussmann,  A. W. Lange,  A. Behn,  J. Deng,  X. Feng,  D. Ghosh,  
 M. Goldey,  P. R. Horn,  L. D. Jacobson,  I. Kaliman,  R. Z. Khaliullin,  
 T. Kus,  A. Landau,  J. Liu,  E. I. Proynov,  Y. M. Rhee,  R. M. Richard,  
 M. A. Rohrdanz,  R. P. Steele,  E. J. Sundstrom,  H. L. Woodcock III,  
 P. M. Zimmerman,  D. Zuev,  B. Albrecht,  E. Alguire,  B. Austin,  
 S. A. Baeppler,  G. J. O. Beran,  Y. A. Bernard,  E. Berquist,  
 K. Brandhorst,  K. B. Bravaya,  S. T. Brown,  D. Casanova,  C.-M. Chang,  
 Y. Chen,  S. H. Chien,  K. D. Closser,  D. L. Crittenden,  M. Diedenhofen,  
 R. A. DiStasio Jr.,  H. Do,  A. D. Dutoi,  R. G. Edgar,  P.-T. Fang,  
 S. Fatehi,  Q. Feng,  L. Fusti-Molnar,  A. Ghysels,  
 A. Golubeva-Zadorozhnaya,  J. Gomes,  A. Gunina,  M. W. D. Hanson-Heine,  
 P. H. P. Harbach,  A. W. Hauser,  E. G. Hohenstein,  Z. C. Holden,  K. Hui,  
 T.-C. Jagau,  H. Ji,  B. Kaduk,  K. Khistyaev,  Jaehoon Kim,  Jihan Kim,  
 R. A. King,  P. Klunzinger,  D. Kosenkov,  T. Kowalczyk,  C. M. Krauter,  
 K. U. Lao,  A. Laurent,  K. V. Lawler,  S. Lehtola,  S. V. Levchenko,  
 C. Y. Lin,  Y.-S. Lin,  F. Liu,  E. Livshits,  R. C. Lochan,  A. Luenser,  
 P. Manohar,  S. F. Manzer,  S.-P. Mao,  N. Mardirossian,  A. V. Marenich,  
 L. A. Martinez-Martinez,  S. A. Maurer,  N. J. Mayhall,  K. Nanda,  
 C. M. Oana,  R. Olivares-Amaya,  D. P. O'Neill,  J. A. Parkhill,  
 T. M. Perrine,  R. Peverati,  P. A. Pieniazek,  F. Plasser,  A. Prociuk,  
 D. R. Rehn,  E. Rosta,  N. J. Russ,  N. Sergueev,  S. M. Sharada,  
 S. Sharma,  D. W. Small,  A. Sodt,  T. Stauch,  T. Stein,  D. Stuck,  
 Y.-C. Su,  A. J. W. Thom,  T. Tsuchimochi,  L. Vogt,  O. Vydrov,  T. Wang,  
 M. A. Watson,  J. Wenzel,  A. White,  C. F. Williams,  V. Vanovschi,  
 S. Yeganeh,  S. R. Yost,  Z.-Q. You,  I. Y. Zhang,  X. Zhang,  Y. Zhao,  
 B. R. Brooks,  G. K. L. Chan,  D. M. Chipman,  C. J. Cramer,  
 W. A. Goddard III,  M. S. Gordon,  W. J. Hehre,  A. Klamt,  
 H. F. Schaefer III,  M. W. Schmidt,  C. D. Sherrill,  D. G. Truhlar,  
 A. Warshel,  X. Xu,  A. Aspuru-Guzik,  R. Baer,  A. T. Bell,  N. A. Besley,  
 J.-D. Chai,  A. Dreuw,  B. D. Dunietz,  T. R. Furlani,  S. R. Gwaltney,  
 C.-P. Hsu,  Y. Jung,  J. Kong,  D. S. Lambrecht,  W. Liang,  C. Ochsenfeld,  
 V. A. Rassolov,  L. V. Slipchenko,  J. E. Subotnik,  T. Van Voorhis,  
 J. M. Herbert,  A. I. Krylov,  P. M. W. Gill,  M. Head-Gordon

 Contributors to earlier versions of Q-Chem not listed above: 
 R. D. Adamson,  J. Baker,  E. F. C. Byrd,  A. K. Chakraborty,  C.-L. Cheng,  
 H. Dachsel,  R. J. Doerksen,  G. Hawkins,  A. Heyden,  S. Hirata,  
 G. Kedziora,  F. J. Keil,  C. Kelley,  P. P. Korambath,  W. Kurlancheek,  
 A. M. Lee,  M. S. Lee,  D. Liotard,  I. Lotan,  P. E. Maslen,  N. Nair,  
 D. Neuhauser,  R. Olson,  B. Peters,  J. Ritchie,  N. E. Schultz,  
 N. Shenvi,  A. C. Simmonett,  K. S. Thanthiriwatte,  Q. Wu,  W. Zhang

 Please cite Q-Chem as follows:
 Y. Shao et al., Mol. Phys. 113, 184-215 (2015)
 DOI: 10.1080/00268976.2014.952696

 Q-Chem 4.3.0 for Intel X86 Linux

 Parts of Q-Chem use Armadillo 5.200.1 (Boston Tea Smuggler).
 http://arma.sourceforge.net/

 Q-Chem begins on Fri Mar 17 11:15:54 2017  

Host: 
0

     Scratch files written to /scratch/qchem/qchem15521//
 Nov1815 1189b_ 19540  19532 5443   
 Parallel job on  1  processors
Processing $rem in /mnt/software/qchem/config/preferences.
 MEM_TOTAL  2000 

Checking the input file for inconsistencies... 	...done.

--------------------------------------------------------------
User input:
--------------------------------------------------------------

$comment
job3 - cvs-adc(2) calculation
$end

$molecule
read
$end

$rem
mem_total 3000
mem_static 1500
sym_ignore true
scf_guess read
method cvs-adc(2)
basis 6-31G*
ee_singlets 20
cc_rest_occ 5                  !only excitations from the lowest N orbitals
unrestricted  true
max_scf_cycles 200
$end
--------------------------------------------------------------
 ----------------------------------------------------------------
             Standard Nuclear Orientation (Angstroms)
    I     Atom           X                Y                Z
 ----------------------------------------------------------------
    1      C      -0.6073890000     2.7210880000    -0.1580230000
    2      F       0.6422450000     2.5153810000    -0.0536730000
    3      F      -1.0905960000     3.5498620000     0.7178540000
    4      F      -1.3612960000     0.3161590000     0.7385950000
    5      F      -1.0852020000     2.8013370000    -1.2910450000
 ----------------------------------------------------------------
 Nuclear Repulsion Energy =   178.6213289424 hartrees
 There are       21 alpha and       21 beta electrons
 Requested basis set is 6-31G(d)
 There are 20 shells and 75 basis functions

 Total QAlloc Memory Limit   3000 MB
 Mega-Array Size      1467 MB
 MEM_STATIC part      1500 MB

                       Distance Matrix (Angstroms)
             C (  1)   F (  2)   F (  3)   F (  4)
   F (  2)  1.270744
   F (  3)  1.299044  2.160589
   F (  4)  2.675067  3.078708  3.245080
   F (  5)  1.232268  2.144046  2.143827  3.220524
 
 tim1(1): 
  3.999999999999997E-003
 tim1(2): 
  1.000000000000000E-006
 A cutoff of  1.0D-11 yielded    193 shell pairs
 There are      2930 function pairs
 
 -------------------------------------------------------
 OpenMP Integral Computing Module                       
 Release: version 1.0, May 2013, Q-Chem Inc. Pittsburgh 
 -------------------------------------------------------
 Integral Job Info:
 Integral job number is                      11
 Integral operator is                         1
 short-range coefficients                     0
 long-range coefficients              100000000
 Omega coefficients                           0
 if combine SR and LR in K                    0
 Integral screening is                        0
 Integral computing path is                   2
 max size of driver memory is            800000
 size of driver memory is                593474
 size of scratch memory is              2260544
 max col of scratch BK array               1296
 max len of scratch array in speh3          155
 max len of scratch index in speh4           18
 max int batch size is                      520
 min int batch size is                       52
 fixed nKL is                                52
 max L of basis functions is                  2
 order of int derivative is                   0
 number of shells is                         20
 number of basis is                          75
 number of cartesian basis is                75
 number of contracted shell pairs           193
 number of primitive shell pairs            968
 maxK2 (contraction) of shell pair           36
 max number of K2 of shell pair               1
 max number of CS2 of shell pair             32
 max number of PS2 of shell pair            192
 mem total for path MDJ                   19336
 -------------------------------------------------------
 Smallest overlap matrix eigenvalue = 3.64E-03

 Scale SEOQF with 1.000000e+00/1.000000e-01/1.000000e+00

 Standard Electronic Orientation quadrupole field applied
 Nucleus-field energy     =     0.0000000096 hartrees
 Guess MOs from SCF MO coefficient file
 Reading MOs from coefficient file
 Reading MOs from coefficient file
 An unrestricted Hartree-Fock SCF calculation will be
 performed using Pulay DIIS extrapolation
 SCF converges when DIIS error is below 1.0E-08
 using 8 threads for integral computing 
 ---------------------------------------
  Cycle       Energy         DIIS Error
 ---------------------------------------
    1    -435.3871917387      1.09E-06
    2    -435.3871917394      7.33E-07
    3    -435.3871917408      5.11E-07
    4    -435.3871917421      2.52E-07
    5    -435.3871917425      1.37E-07
    6    -435.3871917427      4.90E-08
    7    -435.3871917427      1.67E-08
    8    -435.3871917427      3.90E-09 Convergence criterion met
 ---------------------------------------
 <S^2> = 0.0000
 SCF time:  CPU 7.54 s  wall 2.13 s
 SCF   energy in the final basis set = -435.3871917427
 Total energy in the final basis set = -435.3871917427
================================================================================
|                                                                              |
|                                 A D C  M A N                                 |
|                                                                              |
 ------------------------------------------------------------------------------ 
|                                                                              |
| Components:                                                                  |
|                                                                              |
| - libvmm - 1.2-release                                                       |
|   Authors:                                                                   |
|   Evgeny Epifanovsky, Ilya Kaliman                                           |
|                                                                              |
| - libtensor - 2.4-trunk                                                      |
|   Authors:                                                                   |
|   Evgeny Epifanovsky, Michael Wormit, Dmitry Zuev, Sam Manzer                |
|                                                                              |
| - libwfa - 1.1-beta                                                          |
|   Authors:                                                                   |
|   Felix Plasser, Stefanie Baeppler, Benjamin Thomitzni, Michael Wormit       |
|                                                                              |
| - libadc - 1.0-beta                                                          |
|   Authors:                                                                   |
|   Michael Wormit, Philipp H. P. Harbach, Caroline Krauter, Dirk Rehn,        |
|   Matthias Schneider, Jan Wenzel                                             |
|                                                                              |
| - adcman - 2.4-beta                                                          |
|   Authors:                                                                   |
|   Michael Wormit, Philipp H. P. Harbach, Caroline Krauter, Dirk Rehn,        |
|   Jan Wenzel, Andreas Dreuw                                                  |
|                                                                              |
| Authors of earlier versions of ADCMAN:                                       |
| Andreas Dreuw, Jan Hendrik Starcke, Dirk Rehn, Michael Wormit                |
|                                                                              |
================================================================================

 
 Alpha MOs, Unrestricted
 -- Occupied --                  
-26.528 -26.506 -26.498 -26.097 -11.730  -1.915  -1.821  -1.791
  1 A     2 A     3 A     4 A     5 A     6 A     7 A     8 A                  
 -1.319  -1.098  -0.997  -0.990  -0.938  -0.843  -0.837  -0.819
  9 A    10 A    11 A    12 A    13 A    14 A    15 A    16 A                  
 -0.805  -0.790  -0.435  -0.435  -0.378
 17 A    18 A    19 A    20 A    21 A                                          
 -- Virtual --                   
 -0.027   0.263   0.353   0.378   0.587   0.599   0.632   0.667
 22 A    23 A    24 A    25 A    26 A    27 A    28 A    29 A                  
  1.200   1.220   1.227   1.289   1.295   1.331   1.495   1.502
 30 A    31 A    32 A    33 A    34 A    35 A    36 A    37 A                  
  1.511   1.513   1.525   1.539   1.647   1.650   1.659   1.850
 38 A    39 A    40 A    41 A    42 A    43 A    44 A    45 A                  
  1.856   1.872   1.963   1.969   1.995   2.058   2.072   2.106
 46 A    47 A    48 A    49 A    50 A    51 A    52 A    53 A                  
  2.147   2.159   2.197   2.236   2.329   2.329   2.358   2.364
 54 A    55 A    56 A    57 A    58 A    59 A    60 A    61 A                  
  2.419   2.716   2.718   2.781   3.055   3.095   3.313   3.341
 62 A    63 A    64 A    65 A    66 A    67 A    68 A    69 A                  
  3.392   4.047   4.502   4.653   4.763   4.927
 70 A    71 A    72 A    73 A    74 A    75 A                                  
 
 Beta MOs, Unrestricted
 -- Occupied --                  
-26.528 -26.506 -26.498 -26.097 -11.730  -1.915  -1.821  -1.791
  1 A     2 A     3 A     4 A     5 A     6 A     7 A     8 A                  
 -1.319  -1.098  -0.997  -0.990  -0.938  -0.843  -0.837  -0.819
  9 A    10 A    11 A    12 A    13 A    14 A    15 A    16 A                  
 -0.805  -0.790  -0.435  -0.435  -0.378
 17 A    18 A    19 A    20 A    21 A                                          
 -- Virtual --                   
 -0.027   0.263   0.353   0.378   0.587   0.599   0.632   0.667
 22 A    23 A    24 A    25 A    26 A    27 A    28 A    29 A                  
  1.200   1.220   1.227   1.289   1.295   1.331   1.495   1.502
 30 A    31 A    32 A    33 A    34 A    35 A    36 A    37 A                  
  1.511   1.513   1.525   1.539   1.647   1.650   1.659   1.850
 38 A    39 A    40 A    41 A    42 A    43 A    44 A    45 A                  
  1.856   1.872   1.963   1.969   1.995   2.058   2.072   2.106
 46 A    47 A    48 A    49 A    50 A    51 A    52 A    53 A                  
  2.147   2.159   2.197   2.236   2.329   2.329   2.358   2.364
 54 A    55 A    56 A    57 A    58 A    59 A    60 A    61 A                  
  2.419   2.716   2.718   2.781   3.055   3.095   3.313   3.341
 62 A    63 A    64 A    65 A    66 A    67 A    68 A    69 A                  
  3.392   4.047   4.502   4.653   4.763   4.927
 70 A    71 A    72 A    73 A    74 A    75 A                                  
 

--------------------------------------------------------------------------------
                                   HF Summary                                   
--------------------------------------------------------------------------------
  Energy:                                                 -435.3871917427 a.u.
  Dip. moment [a.u.]:                  [ -56.986529,  184.250127,    1.263420]
  Total dipole [Debye]:                                             490.215752
  <r^2> [a.u.]:                        [ 177.406015, 1023.611102,  106.690093]
  Total <r^2> [a.u.]:                                              1307.707211
--------------------------------------------------------------------------------

--------------------------------------------------------------------------------
                                 MP(2) Summary                                  
--------------------------------------------------------------------------------
  Energy contribution:                                      -0.8412744601 a.u.
  Total energy:                                           -436.2284662027 a.u.
  Dip. moment [a.u.]:                  [ -56.695553,  185.266490,    0.873563]
  Total dipole [Debye]:                                             492.461890
  <r^2> [a.u.]:                        [ 176.237139, 1028.549680,  106.162751]
  Total <r^2> [a.u.]:                                              1310.949571
--------------------------------------------------------------------------------
  Starting Davidson ... 
--------------------------------------------------------------------------------
   It NVec Conv  Avg. Norm  Max. Norm  Conv. states           Remark
--------------------------------------------------------------------------------
        20    0  2.051e-01  1.049e+00 10.9860 n n n n n n n n Guess.
    1   40    0  7.414e-02  9.434e-01 10.8204 n n n n n n n n 
    2   60    0  2.648e-02  3.810e-01 10.8185 n n n n n n n n 
    3   80    0  4.319e-03  4.821e-02 10.8184 n n n n n n n n 
    4  100    0  3.787e-03  5.621e-02 10.8184 n n n n n n n n 
    5   40    0  1.788e-02  3.571e-01 10.8184 n n n n n n n n Subspace collapsed.
    6   60    0  1.522e-02  3.038e-01 10.8184 n n n n n n n n 
    7   80    0  1.464e-02  2.921e-01 10.8184 n n n n n n n n 
    8  100    2  1.408e-02  2.815e-01 10.8184 y y n n n n n n 
    9   40    5  1.318e-02  2.636e-01 10.8184 y y n n y n y y Subspace collapsed.
   10   60    7  1.245e-02  2.490e-01 10.8184 y y y y y n y y 
   11   80    8  1.188e-02  2.376e-01 10.8184 y y y y y y y y 
   12  100   13  1.100e-02  2.199e-01 10.8184 y y y y y y y y 
   13   40   14  1.083e-02  2.165e-01 10.8184 y y y y y y y y Subspace collapsed.
   14   60   15  1.039e-02  2.078e-01 10.8184 y y y y y y y y 
   15   80   16  1.029e-02  2.057e-01 10.8184 y y y y y y y y 
   16  100   16  9.891e-03  1.978e-01 10.8184 y y y y y y y y 
   17   39   16  9.660e-03  1.932e-01 10.8184 y y y y y y y y Subspace collapsed.
   18   57   16  9.662e-03  1.932e-01 10.8184 y y y y y y y y 
   19   59   16  9.665e-03  1.933e-01 10.8184 y y y y y y y y 
   20   76   16  9.491e-03  1.898e-01 10.8184 y y y y y y y y 
   21   90   16  9.496e-03  1.899e-01 10.8184 y y y y y y y y 
   22  100   16  9.476e-03  1.895e-01 10.8184 y y y y y y y y 
   23   33   18  9.405e-03  1.881e-01 10.8184 y y y y y y y y Subspace collapsed.
   24   33   18  9.405e-03  1.881e-01 10.8184 y y y y y y y y 
   25   53   18  9.219e-03  1.844e-01 10.8184 y y y y y y y y 
   26   65   18  9.174e-03  1.835e-01 10.8184 y y y y y y y y 
   27   77   18  9.172e-03  1.834e-01 10.8184 y y y y y y y y 
   28   80   18  9.161e-03  1.832e-01 10.8184 y y y y y y y y 
   29   83   18  9.163e-03  1.833e-01 10.8184 y y y y y y y y 
   30   84   18  9.168e-03  1.834e-01 10.8184 y y y y y y y y 
   31   85   18  9.175e-03  1.835e-01 10.8184 y y y y y y y y 
   32   85   18  9.175e-03  1.835e-01 10.8184 y y y y y y y y 
   33   88   18  9.172e-03  1.834e-01 10.8184 y y y y y y y y 
   34   88   18  9.172e-03  1.834e-01 10.8184 y y y y y y y y 
   35   89   18  9.166e-03  1.833e-01 10.8184 y y y y y y y y 
   36   89   18  9.166e-03  1.833e-01 10.8184 y y y y y y y y 
   37   89   18  9.166e-03  1.833e-01 10.8184 y y y y y y y y 
   38  100   18  9.108e-03  1.822e-01 10.8184 y y y y y y y y 
   39   22   18  9.087e-03  1.817e-01 10.8184 y y y y y y y y Subspace collapsed.
   40   22   18  9.087e-03  1.817e-01 10.8184 y y y y y y y y 
   41   24   18  9.086e-03  1.817e-01 10.8184 y y y y y y y y 
   42   25   18  9.086e-03  1.817e-01 10.8184 y y y y y y y y 
   43   25   18  9.086e-03  1.817e-01 10.8184 y y y y y y y y 
   44   27   18  9.085e-03  1.817e-01 10.8184 y y y y y y y y 
   45   27   18  9.085e-03  1.817e-01 10.8184 y y y y y y y y 
   46   27   18  9.085e-03  1.817e-01 10.8184 y y y y y y y y 
   47   47   18  9.019e-03  1.804e-01 10.8184 y y y y y y y y 
   48   47   18  9.019e-03  1.804e-01 10.8184 y y y y y y y y 
   49   59   18  8.986e-03  1.797e-01 10.8184 y y y y y y y y 
   50   65   18  8.995e-03  1.799e-01 10.8184 y y y y y y y y 
   51   71   18  8.957e-03  1.791e-01 10.8184 y y y y y y y y 
   52   71   18  8.957e-03  1.791e-01 10.8184 y y y y y y y y 
   53   71   18  8.957e-03  1.791e-01 10.8184 y y y y y y y y 
   54   71   18  8.957e-03  1.791e-01 10.8184 y y y y y y y y 
   55   91   18  8.899e-03  1.780e-01 10.8184 y y y y y y y y 
   56   96   18  8.921e-03  1.784e-01 10.8184 y y y y y y y y 
   57  100   18  8.909e-03  1.782e-01 10.8184 y y y y y y y y 
   58   24   18  8.897e-03  1.779e-01 10.8184 y y y y y y y y Subspace collapsed.
   59   28   18  8.832e-03  1.766e-01 10.8184 y y y y y y y y 
--------------------------------------------------------------------------------
  Davidson Summary: 
 ------------------------------------------------------------
  State  0: excitation energy =  10.8184 a.u.   (converged)
  State  1: excitation energy =  10.8884 a.u.   (converged)
  State  2: excitation energy =  11.1131 a.u.   (converged)
  State  3: excitation energy =  11.1410 a.u.   (converged)
  State  4: excitation energy =  11.1831 a.u.   (converged)
  State  5: excitation energy =  11.1882 a.u.   (converged)
  State  6: excitation energy =  11.2151 a.u.   (converged)
  State  7: excitation energy =  11.2571 a.u.   (converged)
  State  8: excitation energy =  11.5100 a.u.   (converged)
  State  9: excitation energy =  11.5446 a.u.   (converged)
  State 10: excitation energy =  11.5495 a.u.   (converged)
  State 11: excitation energy =  11.5537 a.u.   (converged)
  State 12: excitation energy =  11.5665 a.u.   (converged)
  State 13: excitation energy =  11.5726 a.u.   (converged)
  State 14: excitation energy =  11.5956 a.u.   (converged)
  State 15: excitation energy =  11.6338 a.u.   (converged)
  State 16: excitation energy =  12.0639 a.u.   (converged)
  State 17: excitation energy =  12.0661 a.u.   (converged)
  State 18: excitation energy =  12.1244 a.u.   (not converged)
  State 19: excitation energy =  12.1817 a.u.   (not converged)
 ------------------------------------------------------------


--------------------------------------------------------------------------------
                             Excited State Summary
--------------------------------------------------------------------------------

  Excited state  1 (A)                                             [converged]
  ----------------------------------------------------------------------------
  Term symbol:  2 (-) A                                     R^2 =  1.42951e-13

  Total energy:                                           -425.4100679689 a.u.
  Excitation energy:                                             294.383588 eV

  Osc. strength:                                                      0.000000
  Trans. dip. moment [a.u.]:           [  -0.000000,   -0.000000,    0.000000]
  <i|r^2|0> [a.u.]:                    [   0.000000,   -0.000000,   -0.000000]

  V1^2 = 0.9510, V2^2 = 0.0490

  Important amplitudes:
     core i     occ j      vir a      vir b          v   
    ------------------------------------------------------
     5 (A) B              22 (A) B                -0.6540
     5 (A) A              22 (A) A                 0.6540
    ------------------------------------------------------
  ----------------------------------------------------------------------------


  Excited state  2 (A)                                             [converged]
  ----------------------------------------------------------------------------
  Term symbol:  3 (-) A                                     R^2 =  1.82659e-13

  Total energy:                                           -425.3401052803 a.u.
  Excitation energy:                                             296.287369 eV

  Osc. strength:                                                      0.087643
  Trans. dip. moment [a.u.]:           [   0.041561,    0.095413,   -0.035255]
  <i|r^2|0> [a.u.]:                    [  -0.103088,    0.973356,    0.013535]

  V1^2 = 0.9436, V2^2 = 0.0564

  Important amplitudes:
     core i     occ j      vir a      vir b          v   
    ------------------------------------------------------
     5 (A) A              22 (A) A                 0.6620
     5 (A) B              22 (A) B                 0.6620
    ------------------------------------------------------
  ----------------------------------------------------------------------------


  Excited state  3 (A)                                             [converged]
  ----------------------------------------------------------------------------
  Term symbol:  4 (-) A                                     R^2 =  1.78539e-13

  Total energy:                                           -425.1153899606 a.u.
  Excitation energy:                                             302.402184 eV

  Osc. strength:                                                      0.000000
  Trans. dip. moment [a.u.]:           [  -0.000000,   -0.000000,    0.000000]
  <i|r^2|0> [a.u.]:                    [   0.000000,   -0.000000,   -0.000000]

  V1^2 = 0.9344, V2^2 = 0.0656

  Important amplitudes:
     core i     occ j      vir a      vir b          v   
    ------------------------------------------------------
     5 (A) B              23 (A) B                -0.5049
     5 (A) A              23 (A) A                 0.5049
    ------------------------------------------------------
  ----------------------------------------------------------------------------


  Excited state  4 (A)                                             [converged]
  ----------------------------------------------------------------------------
  Term symbol:  5 (-) A                                     R^2 =  1.48056e-13

  Total energy:                                           -425.0874786901 a.u.
  Excitation energy:                                             303.161688 eV

  Osc. strength:                                                      0.000000
  Trans. dip. moment [a.u.]:           [   0.000000,   -0.000000,   -0.000000]
  <i|r^2|0> [a.u.]:                    [  -0.000000,   -0.000000,   -0.000000]

  V1^2 = 0.9417, V2^2 = 0.0583

  Important amplitudes:
     core i     occ j      vir a      vir b          v   
    ------------------------------------------------------
     5 (A) A              24 (A) A                 0.4747
     5 (A) B              24 (A) B                -0.4747
    ------------------------------------------------------
  ----------------------------------------------------------------------------


  Excited state  5 (A)                                             [converged]
  ----------------------------------------------------------------------------
  Term symbol:  6 (-) A                                     R^2 =  2.28050e-13

  Total energy:                                           -425.0453804269 a.u.
  Excitation energy:                                             304.307240 eV

  Osc. strength:                                                      0.000000
  Trans. dip. moment [a.u.]:           [  -0.000000,    0.000000,    0.000000]
  <i|r^2|0> [a.u.]:                    [   0.000000,    0.000000,   -0.000000]

  V1^2 = 0.9454, V2^2 = 0.0546

  Important amplitudes:
     core i     occ j      vir a      vir b          v   
    ------------------------------------------------------
     5 (A) A              25 (A) A                 0.5101
     5 (A) B              25 (A) B                -0.5101
    ------------------------------------------------------
  ----------------------------------------------------------------------------


  Excited state  6 (A)                                             [converged]
  ----------------------------------------------------------------------------
  Term symbol:  7 (-) A                                     R^2 =  1.32400e-13

  Total energy:                                           -425.0402293879 a.u.
  Excitation energy:                                             304.447407 eV

  Osc. strength:                                                      0.046663
  Trans. dip. moment [a.u.]:           [  -0.012071,    0.064745,    0.043801]
  <i|r^2|0> [a.u.]:                    [   0.045256,    0.686047,   -0.010449]

  V1^2 = 0.9185, V2^2 = 0.0815

  Important amplitudes:
     core i     occ j      vir a      vir b          v   
    ------------------------------------------------------
     5 (A) A              23 (A) A                 0.5609
     5 (A) B              23 (A) B                 0.5609
    ------------------------------------------------------
  ----------------------------------------------------------------------------


  Excited state  7 (A)                                             [converged]
  ----------------------------------------------------------------------------
  Term symbol:  8 (-) A                                     R^2 =  1.18403e-13

  Total energy:                                           -425.0133970987 a.u.
  Excitation energy:                                             305.177551 eV

  Osc. strength:                                                      0.093372
  Trans. dip. moment [a.u.]:           [   0.093161,   -0.035606,   -0.050416]
  <i|r^2|0> [a.u.]:                    [  -0.210735,   -0.351339,    0.040780]

  V1^2 = 0.9324, V2^2 = 0.0676

  Important amplitudes:
     core i     occ j      vir a      vir b          v   
    ------------------------------------------------------
     5 (A) A              24 (A) A                 0.5332
     5 (A) B              24 (A) B                 0.5332
    ------------------------------------------------------
  ----------------------------------------------------------------------------


  Excited state  8 (A)                                             [converged]
  ----------------------------------------------------------------------------
  Term symbol:  9 (-) A                                     R^2 =  5.60381e-13

  Total energy:                                           -424.9714017129 a.u.
  Excitation energy:                                             306.320303 eV

  Osc. strength:                                                      0.106668
  Trans. dip. moment [a.u.]:           [  -0.069152,    0.006426,   -0.096903]
  <i|r^2|0> [a.u.]:                    [   0.167309,    0.073007,    0.054770]

  V1^2 = 0.9358, V2^2 = 0.0642

  Important amplitudes:
     core i     occ j      vir a      vir b          v   
    ------------------------------------------------------
     5 (A) B              25 (A) B                -0.5630
     5 (A) A              25 (A) A                -0.5630
    ------------------------------------------------------
  ----------------------------------------------------------------------------


  Excited state  9 (A)                                             [converged]
  ----------------------------------------------------------------------------
  Term symbol:  10 (-) A                                    R^2 =  1.16093e-13

  Total energy:                                           -424.7184447103 a.u.
  Excitation energy:                                             313.203614 eV

  Osc. strength:                                                      0.000000
  Trans. dip. moment [a.u.]:           [  -0.000000,   -0.000000,    0.000000]
  <i|r^2|0> [a.u.]:                    [   0.000000,   -0.000000,   -0.000000]

  V1^2 = 0.8874, V2^2 = 0.1126

  Important amplitudes:
     core i     occ j      vir a      vir b          v   
    ------------------------------------------------------
     5 (A) B              26 (A) B                 0.5050
     5 (A) A              26 (A) A                -0.5050
    ------------------------------------------------------
  ----------------------------------------------------------------------------


  Excited state 10 (A)                                             [converged]
  ----------------------------------------------------------------------------
  Term symbol:  11 (-) A                                    R^2 =  1.10060e-13

  Total energy:                                           -424.6839111439 a.u.
  Excitation energy:                                             314.143320 eV

  Osc. strength:                                                      0.022296
  Trans. dip. moment [a.u.]:           [  -0.022912,   -0.042193,    0.024326]
  <i|r^2|0> [a.u.]:                    [   0.037056,   -0.450207,   -0.029741]

  V1^2 = 0.8886, V2^2 = 0.1114

  Important amplitudes:
     core i     occ j      vir a      vir b          v   
    ------------------------------------------------------
     5 (A) A              26 (A) A                 0.5421
     5 (A) B              26 (A) B                 0.5421
    ------------------------------------------------------
  ----------------------------------------------------------------------------


  Excited state 11 (A)                                             [converged]
  ----------------------------------------------------------------------------
  Term symbol:  12 (-) A                                    R^2 =  2.14085e-13

  Total energy:                                           -424.6789238104 a.u.
  Excitation energy:                                             314.279032 eV

  Osc. strength:                                                      0.000000
  Trans. dip. moment [a.u.]:           [  -0.000000,    0.000000,    0.000000]
  <i|r^2|0> [a.u.]:                    [   0.000000,    0.000000,    0.000000]

  V1^2 = 0.8779, V2^2 = 0.1221

  Important amplitudes:
     core i     occ j      vir a      vir b          v   
    ------------------------------------------------------
     5 (A) B              27 (A) B                 0.5028
     5 (A) A              27 (A) A                -0.5028
    ------------------------------------------------------
  ----------------------------------------------------------------------------


  Excited state 12 (A)                                             [converged]
  ----------------------------------------------------------------------------
  Term symbol:  13 (-) A                                    R^2 =  9.11898e-14

  Total energy:                                           -424.6747903841 a.u.
  Excitation energy:                                             314.391508 eV

  Osc. strength:                                                      0.000000
  Trans. dip. moment [a.u.]:           [   0.000000,    0.000000,    0.000000]
  <i|r^2|0> [a.u.]:                    [  -0.000000,    0.000000,   -0.000000]

  V1^2 = 0.8775, V2^2 = 0.1225

  Important amplitudes:
     core i     occ j      vir a      vir b          v   
    ------------------------------------------------------
     5 (A) B              28 (A) B                 0.4448
     5 (A) A              28 (A) A                -0.4448
    ------------------------------------------------------
  ----------------------------------------------------------------------------


  Excited state 13 (A)                                             [converged]
  ----------------------------------------------------------------------------
  Term symbol:  14 (-) A                                    R^2 =  2.66473e-13

  Total energy:                                           -424.6619800095 a.u.
  Excitation energy:                                             314.740096 eV

  Osc. strength:                                                      0.030553
  Trans. dip. moment [a.u.]:           [  -0.050234,    0.029217,    0.024189]
  <i|r^2|0> [a.u.]:                    [   0.118734,    0.303732,   -0.012756]

  V1^2 = 0.8810, V2^2 = 0.1190

  Important amplitudes:
     core i     occ j      vir a      vir b          v   
    ------------------------------------------------------
     5 (A) A              27 (A) A                 0.5251
     5 (A) B              27 (A) B                 0.5251
    ------------------------------------------------------
  ----------------------------------------------------------------------------


  Excited state 14 (A)                                             [converged]
  ----------------------------------------------------------------------------
  Term symbol:  15 (-) A                                    R^2 =  4.36523e-13

  Total energy:                                           -424.6558205124 a.u.
  Excitation energy:                                             314.907705 eV

  Osc. strength:                                                      0.036122
  Trans. dip. moment [a.u.]:           [   0.036234,    0.011943,    0.056802]
  <i|r^2|0> [a.u.]:                    [  -0.086285,    0.119831,   -0.035204]

  V1^2 = 0.8823, V2^2 = 0.1177

  Important amplitudes:
     core i     occ j      vir a      vir b          v   
    ------------------------------------------------------
     5 (A) A              28 (A) A                 0.5382
     5 (A) B              28 (A) B                 0.5382
    ------------------------------------------------------
  ----------------------------------------------------------------------------


  Excited state 15 (A)                                             [converged]
  ----------------------------------------------------------------------------
  Term symbol:  16 (-) A                                    R^2 =  3.50872e-13

  Total energy:                                           -424.6328829982 a.u.
  Excitation energy:                                             315.531866 eV

  Osc. strength:                                                      0.000000
  Trans. dip. moment [a.u.]:           [   0.000000,    0.000000,   -0.000000]
  <i|r^2|0> [a.u.]:                    [  -0.000000,    0.000000,   -0.000000]

  V1^2 = 0.8692, V2^2 = 0.1308

  Important amplitudes:
     core i     occ j      vir a      vir b          v   
    ------------------------------------------------------
     5 (A) B              29 (A) B                -0.6230
     5 (A) A              29 (A) A                 0.6230
    ------------------------------------------------------
  ----------------------------------------------------------------------------


  Excited state 16 (A)                                             [converged]
  ----------------------------------------------------------------------------
  Term symbol:  17 (-) A                                    R^2 =  1.22310e-12

  Total energy:                                           -424.5946617672 a.u.
  Excitation energy:                                             316.571919 eV

  Osc. strength:                                                      0.022628
  Trans. dip. moment [a.u.]:           [   0.012545,    0.048926,   -0.019143]
  <i|r^2|0> [a.u.]:                    [  -0.046691,    0.486210,   -0.006340]

  V1^2 = 0.8719, V2^2 = 0.1281

  Important amplitudes:
     core i     occ j      vir a      vir b          v   
    ------------------------------------------------------
     5 (A) A              29 (A) A                -0.6495
     5 (A) B              29 (A) B                -0.6495
    ------------------------------------------------------
  ----------------------------------------------------------------------------


  Excited state 17 (A)                                             [converged]
  ----------------------------------------------------------------------------
  Term symbol:  18 (-) A                                    R^2 =  4.14943e-10

  Total energy:                                           -424.1645255628 a.u.
  Excitation energy:                                             328.276520 eV

  Osc. strength:                                                      0.000000
  Trans. dip. moment [a.u.]:           [  -0.000000,   -0.000000,   -0.000000]
  <i|r^2|0> [a.u.]:                    [   0.000000,   -0.000000,    0.000000]

  V1^2 = 0.0262, V2^2 = 0.9738

  Important amplitudes:
     core i     occ j      vir a      vir b          v   
    ------------------------------------------------------
     5 (A) B   21 (A) A   22 (A) A   22 (A) B     -0.4917
     5 (A) A   21 (A) B   22 (A) A   22 (A) B     -0.4917
    ------------------------------------------------------
  ----------------------------------------------------------------------------


  Excited state 18 (A)                                             [converged]
  ----------------------------------------------------------------------------
  Term symbol:  19 (-) A                                    R^2 =  6.54669e-10

  Total energy:                                           -424.1623348405 a.u.
  Excitation energy:                                             328.336133 eV

  Osc. strength:                                                      0.000470
  Trans. dip. moment [a.u.]:           [  -0.002636,   -0.006780,    0.002362]
  <i|r^2|0> [a.u.]:                    [   0.008520,   -0.067701,    0.001130]

  V1^2 = 0.0290, V2^2 = 0.9710

  Important amplitudes:
     core i     occ j      vir a      vir b          v   
    ------------------------------------------------------
     5 (A) A   21 (A) B   22 (A) A   22 (A) B      0.4907
     5 (A) B   21 (A) A   22 (A) A   22 (A) B     -0.4907
    ------------------------------------------------------
  ----------------------------------------------------------------------------


  Excited state 19 (A)                                         [not converged]
  ----------------------------------------------------------------------------
  Term symbol:  20 (-) A                                    R^2 =  1.76633e-01

  Total energy:                                           -424.1040616872 a.u.
  Excitation energy:                                             329.921826 eV


  V1^2 = 0.0002, V2^2 = 0.9998

  Important amplitudes:
     core i     occ j      vir a      vir b          v   
    ------------------------------------------------------
     5 (A) A   19 (A) B   22 (A) A   22 (A) B      0.5004
     5 (A) B   19 (A) A   22 (A) A   22 (A) B     -0.4914
    ------------------------------------------------------
  ----------------------------------------------------------------------------


  Excited state 20 (A)                                         [not converged]
  ----------------------------------------------------------------------------
  Term symbol:  21 (-) A                                    R^2 =  4.35489e-05

  Total energy:                                           -424.0467516423 a.u.
  Excitation energy:                                             331.481311 eV


  V1^2 = 0.8534, V2^2 = 0.1466

  Important amplitudes:
     core i     occ j      vir a      vir b          v   
    ------------------------------------------------------
     5 (A) B              30 (A) B                -0.6164
     5 (A) A              30 (A) A                 0.6161
    ------------------------------------------------------
  ----------------------------------------------------------------------------


--------------------------------------------------------------------------------
  Time of ADC calculation:  CPU 3327.30 s  wall 2014.20 s
================================================================================
 
 --------------------------------------------------------------
 
                    Orbital Energies (a.u.)
 --------------------------------------------------------------
 
 Alpha MOs
 -- Occupied --
-26.528 -26.506 -26.498 -26.097 -11.730  -1.915  -1.821  -1.791
 -1.319  -1.098  -0.997  -0.990  -0.938  -0.843  -0.837  -0.819
 -0.805  -0.790  -0.435  -0.435  -0.378
 -- Virtual --
 -0.027   0.263   0.353   0.378   0.587   0.599   0.632   0.667
  1.200   1.220   1.227   1.289   1.295   1.331   1.495   1.502
  1.511   1.513   1.525   1.539   1.647   1.650   1.659   1.850
  1.856   1.872   1.963   1.969   1.995   2.058   2.072   2.106
  2.147   2.159   2.197   2.236   2.329   2.329   2.358   2.364
  2.419   2.716   2.718   2.781   3.055   3.095   3.313   3.341
  3.392   4.047   4.502   4.653   4.763   4.927
 
 Beta MOs
 -- Occupied --
-26.528 -26.506 -26.498 -26.097 -11.730  -1.915  -1.821  -1.791
 -1.319  -1.098  -0.997  -0.990  -0.938  -0.843  -0.837  -0.819
 -0.805  -0.790  -0.435  -0.435  -0.378
 -- Virtual --
 -0.027   0.263   0.353   0.378   0.587   0.599   0.632   0.667
  1.200   1.220   1.227   1.289   1.295   1.331   1.495   1.502
  1.511   1.513   1.525   1.539   1.647   1.650   1.659   1.850
  1.856   1.872   1.963   1.969   1.995   2.058   2.072   2.106
  2.147   2.159   2.197   2.236   2.329   2.329   2.358   2.364
  2.419   2.716   2.718   2.781   3.055   3.095   3.313   3.341
  3.392   4.047   4.502   4.653   4.763   4.927
 --------------------------------------------------------------
 
          Ground-State Mulliken Net Atomic Charges

     Atom                 Charge (a.u.)    Spin (a.u.)
  --------------------------------------------------------
      1 C                     1.157426       0.000000
      2 F                    -0.176716       0.000000
      3 F                    -0.209127       0.000000
      4 F                    -0.634557       0.000000
      5 F                    -0.137027       0.000000
  --------------------------------------------------------
  Sum of atomic charges =     0.000000
  Sum of spin   charges =     0.000000

 -----------------------------------------------------------------
                    Cartesian Multipole Moments
 -----------------------------------------------------------------
    Charge (ESU x 10^10)
                 0.0000
    Dipole Moment (Debye)
         X       2.1999      Y       7.0617      Z      -2.9354
       Tot       7.9576
    Quadrupole Moments (Debye-Ang)
        XX     -27.7203     XY      -3.3829     YY      -1.5823
        XZ       3.4581     YZ      -3.0484     ZZ     -24.7452
    Octopole Moments (Debye-Ang^2)
       XXX      57.8151    XXY     -53.0605    XYY       4.6407
       YYY    -101.5425    XXZ      -4.8765    XYZ       2.6306
       YYZ      -7.2442    XZZ      18.7571    YZZ     -53.8369
       ZZZ      -3.1481
    Hexadecapole Moments (Debye-Ang^3)
      XXXX    -166.1715   XXXY     102.5185   XXYY    -175.9079
      XYYY      68.7125   YYYY    -771.4329   XXXZ      13.0950
      XXYZ       3.0138   XYYZ       6.3825   YYYZ      -2.4893
      XXZZ     -43.4229   XYZZ      33.5448   YYZZ    -168.8094
      XZZZ       9.4786   YZZZ      15.6799   ZZZZ     -88.6826
 -----------------------------------------------------------------
Archival summary:
1\1\tp-linux1\SP\HF\6-31G*\41\thomas\FriMar1711:49:322017FriMar1711:49:322017\0\\#,HF,6-31G*,\\0,1\C\F,1,1.23227\F,1,1.27074,2,117.863\F,1,1.29904,2,115.732,3,-140.737,0\F,1,2.67507,2,104.919,3,105.23,0\\HF=-435.387192\\@

 Total job time:  2018.47s(wall), 3339.19s(cpu) 
 Fri Mar 17 11:49:32 2017

        *************************************************************
        *                                                           *
        *  Thank you very much for using Q-Chem.  Have a nice day.  *
        *                                                           *
        *************************************************************


0 sent ACK to 0 
now end server 0 ... 
cleanup process ... done
