
Running Job 1 of 2 ddtraj2t40.inp
qchem ddtraj2t40.inp_18674.0 /scratch/qchem/qchem18674/ 1
/mnt/software/qchem/bin/mpi/mpirun_qchem -machinefile /mnt/software/qchem/bin/mpi/machines -np 1 /mnt/software/qchem/exe/qcprog.exe ddtraj2t40.inp_18674.0 /scratch/qchem/qchem18674/

Process 0 of 1 is on tp-linux1 - thread support 0
initial socket setup ...start
initial socket setup ...done 
now start server 0 ... 

cmd = ssh tp-linux1 /mnt/software/qchem/bin/get_hostid 1934001021 > /scratch/qchem/qchem18674/lic.dat
                  Welcome to Q-Chem
     A Quantum Leap Into The Future Of Chemistry


 Q-Chem 4.3, Q-Chem, Inc., Pleasanton, CA (2015)

 Y. Shao,  Z. Gan,  E. Epifanovsky,  A. T. B. Gilbert,  M. Wormit,  
 J. Kussmann,  A. W. Lange,  A. Behn,  J. Deng,  X. Feng,  D. Ghosh,  
 M. Goldey,  P. R. Horn,  L. D. Jacobson,  I. Kaliman,  R. Z. Khaliullin,  
 T. Kus,  A. Landau,  J. Liu,  E. I. Proynov,  Y. M. Rhee,  R. M. Richard,  
 M. A. Rohrdanz,  R. P. Steele,  E. J. Sundstrom,  H. L. Woodcock III,  
 P. M. Zimmerman,  D. Zuev,  B. Albrecht,  E. Alguire,  B. Austin,  
 S. A. Baeppler,  G. J. O. Beran,  Y. A. Bernard,  E. Berquist,  
 K. Brandhorst,  K. B. Bravaya,  S. T. Brown,  D. Casanova,  C.-M. Chang,  
 Y. Chen,  S. H. Chien,  K. D. Closser,  D. L. Crittenden,  M. Diedenhofen,  
 R. A. DiStasio Jr.,  H. Do,  A. D. Dutoi,  R. G. Edgar,  P.-T. Fang,  
 S. Fatehi,  Q. Feng,  L. Fusti-Molnar,  A. Ghysels,  
 A. Golubeva-Zadorozhnaya,  J. Gomes,  A. Gunina,  M. W. D. Hanson-Heine,  
 P. H. P. Harbach,  A. W. Hauser,  E. G. Hohenstein,  Z. C. Holden,  K. Hui,  
 T.-C. Jagau,  H. Ji,  B. Kaduk,  K. Khistyaev,  Jaehoon Kim,  Jihan Kim,  
 R. A. King,  P. Klunzinger,  D. Kosenkov,  T. Kowalczyk,  C. M. Krauter,  
 K. U. Lao,  A. Laurent,  K. V. Lawler,  S. Lehtola,  S. V. Levchenko,  
 C. Y. Lin,  Y.-S. Lin,  F. Liu,  E. Livshits,  R. C. Lochan,  A. Luenser,  
 P. Manohar,  S. F. Manzer,  S.-P. Mao,  N. Mardirossian,  A. V. Marenich,  
 L. A. Martinez-Martinez,  S. A. Maurer,  N. J. Mayhall,  K. Nanda,  
 C. M. Oana,  R. Olivares-Amaya,  D. P. O'Neill,  J. A. Parkhill,  
 T. M. Perrine,  R. Peverati,  P. A. Pieniazek,  F. Plasser,  A. Prociuk,  
 D. R. Rehn,  E. Rosta,  N. J. Russ,  N. Sergueev,  S. M. Sharada,  
 S. Sharma,  D. W. Small,  A. Sodt,  T. Stauch,  T. Stein,  D. Stuck,  
 Y.-C. Su,  A. J. W. Thom,  T. Tsuchimochi,  L. Vogt,  O. Vydrov,  T. Wang,  
 M. A. Watson,  J. Wenzel,  A. White,  C. F. Williams,  V. Vanovschi,  
 S. Yeganeh,  S. R. Yost,  Z.-Q. You,  I. Y. Zhang,  X. Zhang,  Y. Zhao,  
 B. R. Brooks,  G. K. L. Chan,  D. M. Chipman,  C. J. Cramer,  
 W. A. Goddard III,  M. S. Gordon,  W. J. Hehre,  A. Klamt,  
 H. F. Schaefer III,  M. W. Schmidt,  C. D. Sherrill,  D. G. Truhlar,  
 A. Warshel,  X. Xu,  A. Aspuru-Guzik,  R. Baer,  A. T. Bell,  N. A. Besley,  
 J.-D. Chai,  A. Dreuw,  B. D. Dunietz,  T. R. Furlani,  S. R. Gwaltney,  
 C.-P. Hsu,  Y. Jung,  J. Kong,  D. S. Lambrecht,  W. Liang,  C. Ochsenfeld,  
 V. A. Rassolov,  L. V. Slipchenko,  J. E. Subotnik,  T. Van Voorhis,  
 J. M. Herbert,  A. I. Krylov,  P. M. W. Gill,  M. Head-Gordon

 Contributors to earlier versions of Q-Chem not listed above: 
 R. D. Adamson,  J. Baker,  E. F. C. Byrd,  A. K. Chakraborty,  C.-L. Cheng,  
 H. Dachsel,  R. J. Doerksen,  G. Hawkins,  A. Heyden,  S. Hirata,  
 G. Kedziora,  F. J. Keil,  C. Kelley,  P. P. Korambath,  W. Kurlancheek,  
 A. M. Lee,  M. S. Lee,  D. Liotard,  I. Lotan,  P. E. Maslen,  N. Nair,  
 D. Neuhauser,  R. Olson,  B. Peters,  J. Ritchie,  N. E. Schultz,  
 N. Shenvi,  A. C. Simmonett,  K. S. Thanthiriwatte,  Q. Wu,  W. Zhang

 Please cite Q-Chem as follows:
 Y. Shao et al., Mol. Phys. 113, 184-215 (2015)
 DOI: 10.1080/00268976.2014.952696

 Q-Chem 4.3.0 for Intel X86 Linux

 Parts of Q-Chem use Armadillo 5.200.1 (Boston Tea Smuggler).
 http://arma.sourceforge.net/

 Q-Chem begins on Fri Mar 17 14:35:04 2017  

Host: 
0

     Scratch files written to /scratch/qchem/qchem18674//
 Nov1815 1189b_ 19540  19532 5443   
 Parallel job on  1  processors
Processing $rem in /mnt/software/qchem/config/preferences.
 MEM_TOTAL  2000 

Checking the input file for inconsistencies... 	...done.

--------------------------------------------------------------
User input:
--------------------------------------------------------------
$comment
XAS calculation for the 2b valence excited for water using cvs-adc(2)-x + 6-311+G* basis set
job 1 - determination of HF orbitals
$end

$molecule
0 1
6  -0.576639  2.674887  -0.149724
9  0.644855  2.57276  -0.076695
9  -1.073419  3.609434  0.698362
9  -1.412477  0.164574  0.79809
9  -1.066995  2.862248  -1.319397
$end

$rem
jobtype      sp
sym_ignore true
exchange     hf
basis        6-31G*
unrestricted true
$end

--------------------------------------------------------------
 ----------------------------------------------------------------
             Standard Nuclear Orientation (Angstroms)
    I     Atom           X                Y                Z
 ----------------------------------------------------------------
    1      C      -0.5766390000     2.6748870000    -0.1497240000
    2      F       0.6448550000     2.5727600000    -0.0766950000
    3      F      -1.0734190000     3.6094340000     0.6983620000
    4      F      -1.4124770000     0.1645740000     0.7980900000
    5      F      -1.0669950000     2.8622480000    -1.3193970000
 ----------------------------------------------------------------
 Nuclear Repulsion Energy =   174.5767912450 hartrees
 There are       21 alpha and       21 beta electrons
 Requested basis set is 6-31G(d)
 There are 20 shells and 75 basis functions

 Total QAlloc Memory Limit   2000 MB
 Mega-Array Size        61 MB
 MEM_STATIC part        62 MB

                       Distance Matrix (Angstroms)
             C (  1)   F (  2)   F (  3)   F (  4)
   F (  2)  1.227929
   F (  3)  1.356252  2.151249
   F (  4)  2.810453  3.285913  3.462942
   F (  5)  1.282064  2.135074  2.151669  3.446818
 
 tim1(1): 
  0.000000000000000E+000
 tim1(2): 
  0.000000000000000E+000
 A cutoff of  1.0D-08 yielded    180 shell pairs
 There are      2716 function pairs
 
 -------------------------------------------------------
 OpenMP Integral Computing Module                       
 Release: version 1.0, May 2013, Q-Chem Inc. Pittsburgh 
 -------------------------------------------------------
 Integral Job Info:
 Integral job number is                      11
 Integral operator is                         1
 short-range coefficients                     0
 long-range coefficients              100000000
 Omega coefficients                           0
 if combine SR and LR in K                    0
 Integral screening is                        0
 Integral computing path is                   2
 max size of driver memory is            800000
 size of driver memory is                593474
 size of scratch memory is              2260544
 max col of scratch BK array               1296
 max len of scratch array in speh3          155
 max len of scratch index in speh4           18
 max int batch size is                      520
 min int batch size is                       52
 fixed nKL is                                52
 max L of basis functions is                  2
 order of int derivative is                   0
 number of shells is                         20
 number of basis is                          75
 number of cartesian basis is                75
 number of contracted shell pairs           180
 number of primitive shell pairs            876
 maxK2 (contraction) of shell pair           36
 max number of K2 of shell pair               1
 max number of CS2 of shell pair             29
 max number of PS2 of shell pair            180
 mem total for path MDJ                   17476
 -------------------------------------------------------
 Smallest overlap matrix eigenvalue = 3.32E-03

 Scale SEOQF with 1.000000e+00/1.000000e-01/1.000000e+00

 Standard Electronic Orientation quadrupole field applied
 Nucleus-field energy     =     0.0000000090 hartrees
 Guess from superposition of atomic densities
 Warning:  Energy on first SCF cycle will be non-variational
 An unrestricted Hartree-Fock SCF calculation will be
 performed using Pulay DIIS extrapolation
 SCF converges when DIIS error is below 1.0E-05
 using 8 threads for integral computing 
 ---------------------------------------
  Cycle       Energy         DIIS Error
 ---------------------------------------
    1    -435.8920191285      7.96E-02
    2    -435.0465484037      2.15E-02
    3    -434.3697677354      3.68E-02
    4    -435.3009214984      8.35E-03
    5    -435.3396261911      2.80E-03
    6    -435.3466139377      5.25E-04
    7    -435.3473084532      5.51E-04
    8    -435.3477257469      2.84E-04
    9    -435.3480258440      1.12E-04
   10    -435.3480990144      1.06E-04
   11    -435.3481402511      5.85E-05
   12    -435.3481546330      7.30E-06 Convergence criterion met
 ---------------------------------------
 <S^2> = 0.0000
 SCF time:  CPU 11.98 s  wall 2.88 s
 SCF   energy in the final basis set = -435.3481546330
 Total energy in the final basis set = -435.3481546330
 
 --------------------------------------------------------------
 
                    Orbital Energies (a.u.)
 --------------------------------------------------------------
 
 Alpha MOs
 -- Occupied --
-26.522 -26.501 -26.471 -26.135 -11.721  -1.905  -1.811  -1.750
 -1.347  -1.091  -0.983  -0.968  -0.926  -0.836  -0.815  -0.809
 -0.781  -0.770  -0.466  -0.466  -0.384
 -- Virtual --
 -0.077   0.290   0.318   0.358   0.584   0.604   0.631   0.652
  1.201   1.222   1.241   1.274   1.275   1.302   1.494   1.502
  1.507   1.533   1.540   1.552   1.627   1.629   1.654   1.819
  1.832   1.861   1.966   1.984   1.999   2.028   2.035   2.061
  2.177   2.203   2.255   2.267   2.305   2.305   2.317   2.321
  2.350   2.580   2.718   2.766   2.995   3.023   3.262   3.317
  3.373   3.999   4.466   4.494   4.622   4.974
 
 Beta MOs
 -- Occupied --
-26.522 -26.501 -26.471 -26.135 -11.721  -1.905  -1.811  -1.750
 -1.347  -1.091  -0.983  -0.968  -0.926  -0.836  -0.815  -0.809
 -0.781  -0.770  -0.466  -0.466  -0.384
 -- Virtual --
 -0.077   0.290   0.318   0.358   0.584   0.604   0.631   0.652
  1.201   1.222   1.241   1.274   1.275   1.302   1.494   1.502
  1.507   1.533   1.540   1.552   1.627   1.629   1.654   1.819
  1.832   1.861   1.966   1.984   1.999   2.028   2.035   2.061
  2.177   2.203   2.255   2.267   2.305   2.305   2.317   2.321
  2.350   2.580   2.718   2.766   2.995   3.023   3.262   3.317
  3.373   3.999   4.466   4.494   4.622   4.974
 --------------------------------------------------------------
 
          Ground-State Mulliken Net Atomic Charges

     Atom                 Charge (a.u.)    Spin (a.u.)
  --------------------------------------------------------
      1 C                     1.145022       0.000000
      2 F                    -0.129675       0.000000
      3 F                    -0.259628       0.000000
      4 F                    -0.561464       0.000000
      5 F                    -0.194255       0.000000
  --------------------------------------------------------
  Sum of atomic charges =     0.000000
  Sum of spin   charges =     0.000000

 -----------------------------------------------------------------
                    Cartesian Multipole Moments
 -----------------------------------------------------------------
    Charge (ESU x 10^10)
                 0.0000
    Dipole Moment (Debye)
         X       2.5423      Y       6.1904      Z      -2.6765
       Tot       7.2075
    Quadrupole Moments (Debye-Ang)
        XX     -28.1010     XY      -1.8658     YY      -6.5056
        XZ       3.2426     YZ      -2.3347     ZZ     -25.3208
    Octopole Moments (Debye-Ang^2)
       XXX      58.6176    XXY     -54.2952    XYY      11.1820
       YYY    -120.5539    XXZ      -4.7443    XYZ       1.8845
       YYZ      -6.0895    XZZ      19.4895    YZZ     -55.2213
       ZZZ      -2.7516
    Hexadecapole Moments (Debye-Ang^3)
      XXXX    -168.8799   XXXY     100.7633   XXYY    -185.9489
      XYYY      87.4242   YYYY    -863.7360   XXXZ      14.4702
      XXYZ       5.2839   XYYZ       5.9188   YYYZ       4.0335
      XXZZ     -45.3614   XYZZ      33.7735   YYZZ    -178.1114
      XZZZ      10.7294   YZZZ      21.1898   ZZZZ     -94.4349
 -----------------------------------------------------------------
Archival summary:
1\1\tp-linux1\SP\HF\6-31G*\41\thomas\FriMar1714:35:082017FriMar1714:35:082017\0\\#,HF,6-31G*,\\0,1\C\F,1,1.22793\F,1,1.28206,2,116.544\F,1,1.35625,2,112.612,3,127.395,0\F,1,2.81045,2,101.625,3,-118.233,0\\HF=-435.348155\\@

 Total job time:  3.20s(wall), 13.72s(cpu) 
 Fri Mar 17 14:35:08 2017

        *************************************************************
        *                                                           *
        *  Thank you very much for using Q-Chem.  Have a nice day.  *
        *                                                           *
        *************************************************************


0 sent ACK to 0 
now end server 0 ... 
cleanup process ... done

Running Job 2 of 2 ddtraj2t40.inp
qchem ddtraj2t40.inp_18674.1 /scratch/qchem/qchem18674/ 1
/mnt/software/qchem/bin/mpi/mpirun_qchem -machinefile /mnt/software/qchem/bin/mpi/machines -np 1 /mnt/software/qchem/exe/qcprog.exe ddtraj2t40.inp_18674.1 /scratch/qchem/qchem18674/

Process 0 of 1 is on tp-linux1 - thread support 0
initial socket setup ...start
initial socket setup ...done 
now start server 0 ... 

cmd = ssh tp-linux1 /mnt/software/qchem/bin/get_hostid 1190356984 > /scratch/qchem/qchem18674/lic.dat
                  Welcome to Q-Chem
     A Quantum Leap Into The Future Of Chemistry


 Q-Chem 4.3, Q-Chem, Inc., Pleasanton, CA (2015)

 Y. Shao,  Z. Gan,  E. Epifanovsky,  A. T. B. Gilbert,  M. Wormit,  
 J. Kussmann,  A. W. Lange,  A. Behn,  J. Deng,  X. Feng,  D. Ghosh,  
 M. Goldey,  P. R. Horn,  L. D. Jacobson,  I. Kaliman,  R. Z. Khaliullin,  
 T. Kus,  A. Landau,  J. Liu,  E. I. Proynov,  Y. M. Rhee,  R. M. Richard,  
 M. A. Rohrdanz,  R. P. Steele,  E. J. Sundstrom,  H. L. Woodcock III,  
 P. M. Zimmerman,  D. Zuev,  B. Albrecht,  E. Alguire,  B. Austin,  
 S. A. Baeppler,  G. J. O. Beran,  Y. A. Bernard,  E. Berquist,  
 K. Brandhorst,  K. B. Bravaya,  S. T. Brown,  D. Casanova,  C.-M. Chang,  
 Y. Chen,  S. H. Chien,  K. D. Closser,  D. L. Crittenden,  M. Diedenhofen,  
 R. A. DiStasio Jr.,  H. Do,  A. D. Dutoi,  R. G. Edgar,  P.-T. Fang,  
 S. Fatehi,  Q. Feng,  L. Fusti-Molnar,  A. Ghysels,  
 A. Golubeva-Zadorozhnaya,  J. Gomes,  A. Gunina,  M. W. D. Hanson-Heine,  
 P. H. P. Harbach,  A. W. Hauser,  E. G. Hohenstein,  Z. C. Holden,  K. Hui,  
 T.-C. Jagau,  H. Ji,  B. Kaduk,  K. Khistyaev,  Jaehoon Kim,  Jihan Kim,  
 R. A. King,  P. Klunzinger,  D. Kosenkov,  T. Kowalczyk,  C. M. Krauter,  
 K. U. Lao,  A. Laurent,  K. V. Lawler,  S. Lehtola,  S. V. Levchenko,  
 C. Y. Lin,  Y.-S. Lin,  F. Liu,  E. Livshits,  R. C. Lochan,  A. Luenser,  
 P. Manohar,  S. F. Manzer,  S.-P. Mao,  N. Mardirossian,  A. V. Marenich,  
 L. A. Martinez-Martinez,  S. A. Maurer,  N. J. Mayhall,  K. Nanda,  
 C. M. Oana,  R. Olivares-Amaya,  D. P. O'Neill,  J. A. Parkhill,  
 T. M. Perrine,  R. Peverati,  P. A. Pieniazek,  F. Plasser,  A. Prociuk,  
 D. R. Rehn,  E. Rosta,  N. J. Russ,  N. Sergueev,  S. M. Sharada,  
 S. Sharma,  D. W. Small,  A. Sodt,  T. Stauch,  T. Stein,  D. Stuck,  
 Y.-C. Su,  A. J. W. Thom,  T. Tsuchimochi,  L. Vogt,  O. Vydrov,  T. Wang,  
 M. A. Watson,  J. Wenzel,  A. White,  C. F. Williams,  V. Vanovschi,  
 S. Yeganeh,  S. R. Yost,  Z.-Q. You,  I. Y. Zhang,  X. Zhang,  Y. Zhao,  
 B. R. Brooks,  G. K. L. Chan,  D. M. Chipman,  C. J. Cramer,  
 W. A. Goddard III,  M. S. Gordon,  W. J. Hehre,  A. Klamt,  
 H. F. Schaefer III,  M. W. Schmidt,  C. D. Sherrill,  D. G. Truhlar,  
 A. Warshel,  X. Xu,  A. Aspuru-Guzik,  R. Baer,  A. T. Bell,  N. A. Besley,  
 J.-D. Chai,  A. Dreuw,  B. D. Dunietz,  T. R. Furlani,  S. R. Gwaltney,  
 C.-P. Hsu,  Y. Jung,  J. Kong,  D. S. Lambrecht,  W. Liang,  C. Ochsenfeld,  
 V. A. Rassolov,  L. V. Slipchenko,  J. E. Subotnik,  T. Van Voorhis,  
 J. M. Herbert,  A. I. Krylov,  P. M. W. Gill,  M. Head-Gordon

 Contributors to earlier versions of Q-Chem not listed above: 
 R. D. Adamson,  J. Baker,  E. F. C. Byrd,  A. K. Chakraborty,  C.-L. Cheng,  
 H. Dachsel,  R. J. Doerksen,  G. Hawkins,  A. Heyden,  S. Hirata,  
 G. Kedziora,  F. J. Keil,  C. Kelley,  P. P. Korambath,  W. Kurlancheek,  
 A. M. Lee,  M. S. Lee,  D. Liotard,  I. Lotan,  P. E. Maslen,  N. Nair,  
 D. Neuhauser,  R. Olson,  B. Peters,  J. Ritchie,  N. E. Schultz,  
 N. Shenvi,  A. C. Simmonett,  K. S. Thanthiriwatte,  Q. Wu,  W. Zhang

 Please cite Q-Chem as follows:
 Y. Shao et al., Mol. Phys. 113, 184-215 (2015)
 DOI: 10.1080/00268976.2014.952696

 Q-Chem 4.3.0 for Intel X86 Linux

 Parts of Q-Chem use Armadillo 5.200.1 (Boston Tea Smuggler).
 http://arma.sourceforge.net/

 Q-Chem begins on Fri Mar 17 14:35:10 2017  

Host: 
0

     Scratch files written to /scratch/qchem/qchem18674//
 Nov1815 1189b_ 19540  19532 5443   
 Parallel job on  1  processors
Processing $rem in /mnt/software/qchem/config/preferences.
 MEM_TOTAL  2000 

Checking the input file for inconsistencies... 	...done.

--------------------------------------------------------------
User input:
--------------------------------------------------------------

$comment
job3 - cvs-adc(2) calculation
$end

$molecule
read
$end

$rem
mem_total 3000
mem_static 1500
sym_ignore true
scf_guess read
method cvs-adc(2)
basis 6-31G*
ee_singlets 20
cc_rest_occ 5                  !only excitations from the lowest N orbitals
unrestricted  true
max_scf_cycles 200
$end
--------------------------------------------------------------
 ----------------------------------------------------------------
             Standard Nuclear Orientation (Angstroms)
    I     Atom           X                Y                Z
 ----------------------------------------------------------------
    1      C      -0.5766390000     2.6748870000    -0.1497240000
    2      F       0.6448550000     2.5727600000    -0.0766950000
    3      F      -1.0734190000     3.6094340000     0.6983620000
    4      F      -1.4124770000     0.1645740000     0.7980900000
    5      F      -1.0669950000     2.8622480000    -1.3193970000
 ----------------------------------------------------------------
 Nuclear Repulsion Energy =   174.5767912450 hartrees
 There are       21 alpha and       21 beta electrons
 Requested basis set is 6-31G(d)
 There are 20 shells and 75 basis functions

 Total QAlloc Memory Limit   3000 MB
 Mega-Array Size      1467 MB
 MEM_STATIC part      1500 MB

                       Distance Matrix (Angstroms)
             C (  1)   F (  2)   F (  3)   F (  4)
   F (  2)  1.227929
   F (  3)  1.356252  2.151249
   F (  4)  2.810453  3.285913  3.462942
   F (  5)  1.282064  2.135074  2.151669  3.446818
 
 tim1(1): 
  0.000000000000000E+000
 tim1(2): 
  0.000000000000000E+000
 A cutoff of  1.0D-11 yielded    188 shell pairs
 There are      2882 function pairs
 
 -------------------------------------------------------
 OpenMP Integral Computing Module                       
 Release: version 1.0, May 2013, Q-Chem Inc. Pittsburgh 
 -------------------------------------------------------
 Integral Job Info:
 Integral job number is                      11
 Integral operator is                         1
 short-range coefficients                     0
 long-range coefficients              100000000
 Omega coefficients                           0
 if combine SR and LR in K                    0
 Integral screening is                        0
 Integral computing path is                   2
 max size of driver memory is            800000
 size of driver memory is                593474
 size of scratch memory is              2260544
 max col of scratch BK array               1296
 max len of scratch array in speh3          155
 max len of scratch index in speh4           18
 max int batch size is                      520
 min int batch size is                       52
 fixed nKL is                                52
 max L of basis functions is                  2
 order of int derivative is                   0
 number of shells is                         20
 number of basis is                          75
 number of cartesian basis is                75
 number of contracted shell pairs           188
 number of primitive shell pairs            953
 maxK2 (contraction) of shell pair           36
 max number of K2 of shell pair               1
 max number of CS2 of shell pair             32
 max number of PS2 of shell pair            192
 mem total for path MDJ                   18100
 -------------------------------------------------------
 Smallest overlap matrix eigenvalue = 3.32E-03

 Scale SEOQF with 1.000000e+00/1.000000e-01/1.000000e+00

 Standard Electronic Orientation quadrupole field applied
 Nucleus-field energy     =     0.0000000090 hartrees
 Guess MOs from SCF MO coefficient file
 Reading MOs from coefficient file
 Reading MOs from coefficient file
 An unrestricted Hartree-Fock SCF calculation will be
 performed using Pulay DIIS extrapolation
 SCF converges when DIIS error is below 1.0E-08
 using 8 threads for integral computing 
 ---------------------------------------
  Cycle       Energy         DIIS Error
 ---------------------------------------
    1    -435.3481553329      4.42E-06
    2    -435.3481553406      2.87E-06
    3    -435.3481553491      1.82E-06
    4    -435.3481553571      6.01E-07
    5    -435.3481553594      4.40E-07
    6    -435.3481553612      2.56E-07
    7    -435.3481553618      4.35E-08
    8    -435.3481553618      1.70E-08
    9    -435.3481553618      3.14E-09 Convergence criterion met
 ---------------------------------------
 <S^2> = 0.0000
 SCF time:  CPU 10.95 s  wall 2.35 s
 SCF   energy in the final basis set = -435.3481553618
 Total energy in the final basis set = -435.3481553618
================================================================================
|                                                                              |
|                                 A D C  M A N                                 |
|                                                                              |
 ------------------------------------------------------------------------------ 
|                                                                              |
| Components:                                                                  |
|                                                                              |
| - libvmm - 1.2-release                                                       |
|   Authors:                                                                   |
|   Evgeny Epifanovsky, Ilya Kaliman                                           |
|                                                                              |
| - libtensor - 2.4-trunk                                                      |
|   Authors:                                                                   |
|   Evgeny Epifanovsky, Michael Wormit, Dmitry Zuev, Sam Manzer                |
|                                                                              |
| - libwfa - 1.1-beta                                                          |
|   Authors:                                                                   |
|   Felix Plasser, Stefanie Baeppler, Benjamin Thomitzni, Michael Wormit       |
|                                                                              |
| - libadc - 1.0-beta                                                          |
|   Authors:                                                                   |
|   Michael Wormit, Philipp H. P. Harbach, Caroline Krauter, Dirk Rehn,        |
|   Matthias Schneider, Jan Wenzel                                             |
|                                                                              |
| - adcman - 2.4-beta                                                          |
|   Authors:                                                                   |
|   Michael Wormit, Philipp H. P. Harbach, Caroline Krauter, Dirk Rehn,        |
|   Jan Wenzel, Andreas Dreuw                                                  |
|                                                                              |
| Authors of earlier versions of ADCMAN:                                       |
| Andreas Dreuw, Jan Hendrik Starcke, Dirk Rehn, Michael Wormit                |
|                                                                              |
================================================================================

 
 Alpha MOs, Unrestricted
 -- Occupied --                  
-26.522 -26.502 -26.471 -26.135 -11.721  -1.905  -1.811  -1.750
  1 A     2 A     3 A     4 A     5 A     6 A     7 A     8 A                  
 -1.347  -1.091  -0.983  -0.969  -0.926  -0.836  -0.815  -0.809
  9 A    10 A    11 A    12 A    13 A    14 A    15 A    16 A                  
 -0.781  -0.770  -0.466  -0.466  -0.384
 17 A    18 A    19 A    20 A    21 A                                          
 -- Virtual --                   
 -0.077   0.290   0.318   0.358   0.584   0.604   0.631   0.652
 22 A    23 A    24 A    25 A    26 A    27 A    28 A    29 A                  
  1.201   1.222   1.241   1.274   1.275   1.302   1.494   1.502
 30 A    31 A    32 A    33 A    34 A    35 A    36 A    37 A                  
  1.507   1.533   1.540   1.552   1.627   1.629   1.654   1.819
 38 A    39 A    40 A    41 A    42 A    43 A    44 A    45 A                  
  1.832   1.861   1.966   1.984   1.999   2.028   2.035   2.061
 46 A    47 A    48 A    49 A    50 A    51 A    52 A    53 A                  
  2.177   2.203   2.255   2.267   2.305   2.305   2.317   2.322
 54 A    55 A    56 A    57 A    58 A    59 A    60 A    61 A                  
  2.351   2.580   2.718   2.766   2.995   3.023   3.261   3.317
 62 A    63 A    64 A    65 A    66 A    67 A    68 A    69 A                  
  3.373   3.999   4.466   4.494   4.622   4.974
 70 A    71 A    72 A    73 A    74 A    75 A                                  
 
 Beta MOs, Unrestricted
 -- Occupied --                  
-26.522 -26.502 -26.471 -26.135 -11.721  -1.905  -1.811  -1.750
  1 A     2 A     3 A     4 A     5 A     6 A     7 A     8 A                  
 -1.347  -1.091  -0.983  -0.969  -0.926  -0.836  -0.815  -0.809
  9 A    10 A    11 A    12 A    13 A    14 A    15 A    16 A                  
 -0.781  -0.770  -0.466  -0.466  -0.384
 17 A    18 A    19 A    20 A    21 A                                          
 -- Virtual --                   
 -0.077   0.290   0.318   0.358   0.584   0.604   0.631   0.652
 22 A    23 A    24 A    25 A    26 A    27 A    28 A    29 A                  
  1.201   1.222   1.241   1.274   1.275   1.302   1.494   1.502
 30 A    31 A    32 A    33 A    34 A    35 A    36 A    37 A                  
  1.507   1.533   1.540   1.552   1.627   1.629   1.654   1.819
 38 A    39 A    40 A    41 A    42 A    43 A    44 A    45 A                  
  1.832   1.861   1.966   1.984   1.999   2.028   2.035   2.061
 46 A    47 A    48 A    49 A    50 A    51 A    52 A    53 A                  
  2.177   2.203   2.255   2.267   2.305   2.305   2.317   2.322
 54 A    55 A    56 A    57 A    58 A    59 A    60 A    61 A                  
  2.351   2.580   2.718   2.766   2.995   3.023   3.261   3.317
 62 A    63 A    64 A    65 A    66 A    67 A    68 A    69 A                  
  3.373   3.999   4.466   4.494   4.622   4.974
 70 A    71 A    72 A    73 A    74 A    75 A                                  
 

--------------------------------------------------------------------------------
                                   HF Summary                                   
--------------------------------------------------------------------------------
  Energy:                                                 -435.3481553618 a.u.
  Dip. moment [a.u.]:                  [ -56.996980,  184.515420,    1.062447]
  Total dipole [Debye]:                                             490.864739
  <r^2> [a.u.]:                        [ 179.125566, 1053.762099,  111.589525]
  Total <r^2> [a.u.]:                                              1344.477191
--------------------------------------------------------------------------------

--------------------------------------------------------------------------------
                                 MP(2) Summary                                  
--------------------------------------------------------------------------------
  Energy contribution:                                      -0.8655028387 a.u.
  Total energy:                                           -436.2136582005 a.u.
  Dip. moment [a.u.]:                  [ -56.439851,  186.250238,    0.394730]
  Total dipole [Debye]:                                             494.660552
  <r^2> [a.u.]:                        [ 177.036423, 1061.690519,  110.717796]
  Total <r^2> [a.u.]:                                              1349.444738
--------------------------------------------------------------------------------
  Starting Davidson ... 
--------------------------------------------------------------------------------
   It NVec Conv  Avg. Norm  Max. Norm  Conv. states           Remark
--------------------------------------------------------------------------------
        20    0  2.045e-01  1.053e+00 10.9872 n n n n n n n n Guess.
    1   40    0  7.949e-02  1.001e+00 10.8086 n n n n n n n n 
    2   60    0  1.236e-02  1.807e-01 10.8059 n n n n n n n n 
    3   80    0  5.521e-03  6.801e-02 10.8058 n n n n n n n n 
    4  100    0  7.405e-03  1.071e-01 10.8058 n n n n n n n n 
    5   40    0  2.447e-03  3.431e-02 10.8058 n n n n n n n n Subspace collapsed.
    6   60    0  2.247e-03  3.400e-02 10.8058 n n n n n n n n 
    7   80    0  3.044e-03  5.059e-02 10.8058 n n n n n n n n 
    8  100    2  3.102e-03  5.470e-02 10.8058 y y n n n n n n 
    9   40    6  1.731e-03  2.943e-02 10.8058 y y y n n y y y Subspace collapsed.
   10   60    6  1.206e-03  1.880e-02 10.8058 y y y n n y y y 
   11   80    8  1.226e-03  1.864e-02 10.8058 y y y y y y y y 
   12  100   10  1.364e-03  2.103e-02 10.8058 y y y y y y y y 
   13   40   16  7.848e-04  1.179e-02 10.8058 y y y y y y y y Subspace collapsed.
   14   60   16  6.933e-04  1.186e-02 10.8058 y y y y y y y y 
   15   80   16  6.924e-04  1.237e-02 10.8058 y y y y y y y y 
   16  100   17  7.389e-04  1.318e-02 10.8058 y y y y y y y y 
   17   39   18  4.416e-04  7.718e-03 10.8058 y y y y y y y y Subspace collapsed.
   18   57   18  3.773e-04  6.283e-03 10.8058 y y y y y y y y 
   19   74   18  3.149e-04  4.647e-03 10.8058 y y y y y y y y 
   20   88   18  3.304e-04  5.198e-03 10.8058 y y y y y y y y 
   21  100   18  3.694e-04  6.056e-03 10.8058 y y y y y y y y 
   22   33   18  2.380e-04  3.824e-03 10.8058 y y y y y y y y Subspace collapsed.
   23   46   18  1.966e-04  3.373e-03 10.8058 y y y y y y y y 
   24   59   18  1.733e-04  3.125e-03 10.8058 y y y y y y y y 
   25   72   18  1.897e-04  3.317e-03 10.8058 y y y y y y y y 
   26   72   18  1.897e-04  3.317e-03 10.8058 y y y y y y y y 
   27   92   18  1.843e-04  3.012e-03 10.8058 y y y y y y y y 
   28   96   18  1.845e-04  3.043e-03 10.8058 y y y y y y y y 
   29   98   18  1.846e-04  3.045e-03 10.8058 y y y y y y y y 
   30   98   18  1.846e-04  3.045e-03 10.8058 y y y y y y y y 
   31   98   18  1.846e-04  3.045e-03 10.8058 y y y y y y y y 
   32  100   18  1.855e-04  3.062e-03 10.8058 y y y y y y y y 
   33   20   18  1.855e-04  3.062e-03 10.8058 y y y y y y y y Subspace collapsed.
   34   21   18  1.855e-04  3.063e-03 10.8058 y y y y y y y y 
   35   22   18  1.856e-04  3.065e-03 10.8058 y y y y y y y y 
   36   28   18  9.278e-05  1.633e-03 10.8058 y y y y y y y y 
   37   35   18  6.323e-05  1.165e-03 10.8058 y y y y y y y y 
   38   35   18  6.323e-05  1.165e-03 10.8058 y y y y y y y y 
   39   37   18  6.322e-05  1.166e-03 10.8058 y y y y y y y y 
   40   37   18  6.322e-05  1.166e-03 10.8058 y y y y y y y y 
   41   38   18  6.321e-05  1.165e-03 10.8058 y y y y y y y y 
   42   38   18  6.321e-05  1.165e-03 10.8058 y y y y y y y y 
   43   39   18  6.313e-05  1.164e-03 10.8058 y y y y y y y y 
   44   39   18  6.313e-05  1.164e-03 10.8058 y y y y y y y y 
   45   39   18  6.313e-05  1.164e-03 10.8058 y y y y y y y y 
   46   59   18  5.142e-05  9.473e-04 10.8058 y y y y y y y y 
   47   64   18  4.443e-05  8.108e-04 10.8058 y y y y y y y y 
   48   69   18  4.189e-05  7.494e-04 10.8058 y y y y y y y y 
   49   73   18  3.848e-05  6.902e-04 10.8058 y y y y y y y y 
   50   77   18  3.000e-05  5.526e-04 10.8058 y y y y y y y y 
   51   81   18  2.151e-05  4.141e-04 10.8058 y y y y y y y y 
   52   85   18  1.785e-05  3.441e-04 10.8058 y y y y y y y y 
   53   86   18  1.783e-05  3.438e-04 10.8058 y y y y y y y y 
   54   86   18  1.783e-05  3.438e-04 10.8058 y y y y y y y y 
   55   86   18  1.783e-05  3.438e-04 10.8058 y y y y y y y y 
   56   88   18  1.756e-05  3.384e-04 10.8058 y y y y y y y y 
   57   88   18  1.756e-05  3.384e-04 10.8058 y y y y y y y y 
   58   89   18  1.768e-05  3.406e-04 10.8058 y y y y y y y y 
   59   90   18  1.825e-05  3.520e-04 10.8058 y y y y y y y y 
--------------------------------------------------------------------------------
  Davidson Summary: 
 ------------------------------------------------------------
  State  0: excitation energy =  10.8058 a.u.   (converged)
  State  1: excitation energy =  10.8711 a.u.   (converged)
  State  2: excitation energy =  11.0621 a.u.   (converged)
  State  3: excitation energy =  11.1268 a.u.   (converged)
  State  4: excitation energy =  11.1378 a.u.   (converged)
  State  5: excitation energy =  11.1777 a.u.   (converged)
  State  6: excitation energy =  11.2027 a.u.   (converged)
  State  7: excitation energy =  11.2467 a.u.   (converged)
  State  8: excitation energy =  11.5141 a.u.   (converged)
  State  9: excitation energy =  11.5276 a.u.   (converged)
  State 10: excitation energy =  11.5363 a.u.   (converged)
  State 11: excitation energy =  11.5404 a.u.   (converged)
  State 12: excitation energy =  11.5432 a.u.   (converged)
  State 13: excitation energy =  11.5481 a.u.   (converged)
  State 14: excitation energy =  11.5560 a.u.   (converged)
  State 15: excitation energy =  11.5872 a.u.   (converged)
  State 16: excitation energy =  11.9716 a.u.   (converged)
  State 17: excitation energy =  11.9751 a.u.   (converged)
  State 18: excitation energy =  12.1631 a.u.   (not converged)
  State 19: excitation energy =  12.1680 a.u.   (not converged)
 ------------------------------------------------------------


--------------------------------------------------------------------------------
                             Excited State Summary
--------------------------------------------------------------------------------

  Excited state  1 (A)                                             [converged]
  ----------------------------------------------------------------------------
  Term symbol:  2 (-) A                                     R^2 =  2.20267e-10

  Total energy:                                           -425.4078664621 a.u.
  Excitation energy:                                             294.040547 eV

  Osc. strength:                                                      0.000000
  Trans. dip. moment [a.u.]:           [  -0.000000,   -0.000000,    0.000000]
  <i|r^2|0> [a.u.]:                    [   0.000000,   -0.000000,   -0.000000]

  V1^2 = 0.9423, V2^2 = 0.0577

  Important amplitudes:
     core i     occ j      vir a      vir b          v   
    ------------------------------------------------------
     5 (A) B              22 (A) B                -0.6515
     5 (A) A              22 (A) A                 0.6515
    ------------------------------------------------------
  ----------------------------------------------------------------------------


  Excited state  2 (A)                                             [converged]
  ----------------------------------------------------------------------------
  Term symbol:  3 (-) A                                     R^2 =  1.73133e-10

  Total energy:                                           -425.3425248739 a.u.
  Excitation energy:                                             295.818582 eV

  Osc. strength:                                                      0.068492
  Trans. dip. moment [a.u.]:           [   0.036455,    0.084804,   -0.030494]
  <i|r^2|0> [a.u.]:                    [  -0.088156,    0.848570,    0.008571]

  V1^2 = 0.9318, V2^2 = 0.0682

  Important amplitudes:
     core i     occ j      vir a      vir b          v   
    ------------------------------------------------------
     5 (A) A              22 (A) A                 0.6596
     5 (A) B              22 (A) B                 0.6596
    ------------------------------------------------------
  ----------------------------------------------------------------------------


  Excited state  3 (A)                                             [converged]
  ----------------------------------------------------------------------------
  Term symbol:  4 (-) A                                     R^2 =  2.77350e-11

  Total energy:                                           -425.1515501207 a.u.
  Excitation energy:                                             301.015270 eV

  Osc. strength:                                                      0.000000
  Trans. dip. moment [a.u.]:           [  -0.000000,   -0.000000,    0.000000]
  <i|r^2|0> [a.u.]:                    [   0.000000,   -0.000000,   -0.000000]

  V1^2 = 0.9436, V2^2 = 0.0564

  Important amplitudes:
     core i     occ j      vir a      vir b          v   
    ------------------------------------------------------
     5 (A) A              23 (A) A                 0.5975
     5 (A) B              23 (A) B                -0.5975
    ------------------------------------------------------
  ----------------------------------------------------------------------------


  Excited state  4 (A)                                             [converged]
  ----------------------------------------------------------------------------
  Term symbol:  5 (-) A                                     R^2 =  4.35682e-13

  Total energy:                                           -425.0868087051 a.u.
  Excitation energy:                                             302.776973 eV

  Osc. strength:                                                      0.000000
  Trans. dip. moment [a.u.]:           [  -0.000000,    0.000000,    0.000000]
  <i|r^2|0> [a.u.]:                    [   0.000000,    0.000000,   -0.000000]

  V1^2 = 0.9344, V2^2 = 0.0656

  Important amplitudes:
     core i     occ j      vir a      vir b          v   
    ------------------------------------------------------
     5 (A) A              24 (A) A                 0.5070
     5 (A) B              24 (A) B                -0.5070
    ------------------------------------------------------
  ----------------------------------------------------------------------------


  Excited state  5 (A)                                             [converged]
  ----------------------------------------------------------------------------
  Term symbol:  6 (-) A                                     R^2 =  2.70758e-11

  Total energy:                                           -425.0758670928 a.u.
  Excitation energy:                                             303.074710 eV

  Osc. strength:                                                      0.105105
  Trans. dip. moment [a.u.]:           [   0.034474,   -0.072536,   -0.087779]
  <i|r^2|0> [a.u.]:                    [  -0.084841,   -0.739431,    0.041154]

  V1^2 = 0.9347, V2^2 = 0.0653

  Important amplitudes:
     core i     occ j      vir a      vir b          v   
    ------------------------------------------------------
     5 (A) A              23 (A) A                -0.6082
     5 (A) B              23 (A) B                -0.6082
    ------------------------------------------------------
  ----------------------------------------------------------------------------


  Excited state  6 (A)                                             [converged]
  ----------------------------------------------------------------------------
  Term symbol:  7 (-) A                                     R^2 =  3.65467e-11

  Total energy:                                           -425.0359238269 a.u.
  Excitation energy:                                             304.161621 eV

  Osc. strength:                                                      0.000000
  Trans. dip. moment [a.u.]:           [  -0.000000,    0.000000,   -0.000000]
  <i|r^2|0> [a.u.]:                    [   0.000000,    0.000000,    0.000000]

  V1^2 = 0.9346, V2^2 = 0.0654

  Important amplitudes:
     core i     occ j      vir a      vir b          v   
    ------------------------------------------------------
     5 (A) A              25 (A) A                -0.4785
     5 (A) B              25 (A) B                 0.4785
    ------------------------------------------------------
  ----------------------------------------------------------------------------


  Excited state  7 (A)                                             [converged]
  ----------------------------------------------------------------------------
  Term symbol:  8 (-) A                                     R^2 =  6.55758e-11

  Total energy:                                           -425.0109498559 a.u.
  Excitation energy:                                             304.841197 eV

  Osc. strength:                                                      0.068064
  Trans. dip. moment [a.u.]:           [  -0.037190,    0.040000,   -0.078297]
  <i|r^2|0> [a.u.]:                    [   0.097518,    0.423339,    0.053717]

  V1^2 = 0.9203, V2^2 = 0.0797

  Important amplitudes:
     core i     occ j      vir a      vir b          v   
    ------------------------------------------------------
     5 (A) A              24 (A) A                -0.5318
     5 (A) B              24 (A) B                -0.5318
    ------------------------------------------------------
  ----------------------------------------------------------------------------


  Excited state  8 (A)                                             [converged]
  ----------------------------------------------------------------------------
  Term symbol:  9 (-) A                                     R^2 =  1.68087e-11

  Total energy:                                           -424.9669862181 a.u.
  Excitation energy:                                             306.037509 eV

  Osc. strength:                                                      0.076226
  Trans. dip. moment [a.u.]:           [   0.099828,    0.001710,    0.014068]
  <i|r^2|0> [a.u.]:                    [  -0.215567,    0.032235,    0.006547]

  V1^2 = 0.9211, V2^2 = 0.0789

  Important amplitudes:
     core i     occ j      vir a      vir b          v   
    ------------------------------------------------------
     5 (A) A              25 (A) A                 0.5240
     5 (A) B              25 (A) B                 0.5240
    ------------------------------------------------------
  ----------------------------------------------------------------------------


  Excited state  9 (A)                                             [converged]
  ----------------------------------------------------------------------------
  Term symbol:  10 (-) A                                    R^2 =  1.85125e-11

  Total energy:                                           -424.6995727580 a.u.
  Excitation energy:                                             313.314199 eV

  Osc. strength:                                                      0.000000
  Trans. dip. moment [a.u.]:           [  -0.000000,   -0.000000,    0.000000]
  <i|r^2|0> [a.u.]:                    [   0.000000,   -0.000000,   -0.000000]

  V1^2 = 0.8755, V2^2 = 0.1245

  Important amplitudes:
     core i     occ j      vir a      vir b          v   
    ------------------------------------------------------
     5 (A) B              27 (A) B                -0.4730
     5 (A) A              27 (A) A                 0.4730
    ------------------------------------------------------
  ----------------------------------------------------------------------------


  Excited state 10 (A)                                             [converged]
  ----------------------------------------------------------------------------
  Term symbol:  11 (-) A                                    R^2 =  7.60589e-12

  Total energy:                                           -424.6860755049 a.u.
  Excitation energy:                                             313.681478 eV

  Osc. strength:                                                      0.000000
  Trans. dip. moment [a.u.]:           [   0.000000,    0.000000,    0.000000]
  <i|r^2|0> [a.u.]:                    [  -0.000000,    0.000000,   -0.000000]

  V1^2 = 0.8695, V2^2 = 0.1305

  Important amplitudes:
     core i     occ j      vir a      vir b          v   
    ------------------------------------------------------
     5 (A) B              26 (A) B                -0.4176
     5 (A) A              26 (A) A                 0.4176
    ------------------------------------------------------
  ----------------------------------------------------------------------------


  Excited state 11 (A)                                             [converged]
  ----------------------------------------------------------------------------
  Term symbol:  12 (-) A                                    R^2 =  2.13606e-12

  Total energy:                                           -424.6773795728 a.u.
  Excitation energy:                                             313.918107 eV

  Osc. strength:                                                      0.000000
  Trans. dip. moment [a.u.]:           [  -0.000000,    0.000000,   -0.000000]
  <i|r^2|0> [a.u.]:                    [   0.000000,    0.000000,    0.000000]

  V1^2 = 0.8688, V2^2 = 0.1312

  Important amplitudes:
     core i     occ j      vir a      vir b          v   
    ------------------------------------------------------
     5 (A) B              26 (A) B                -0.3967
     5 (A) A              26 (A) A                 0.3967
    ------------------------------------------------------
  ----------------------------------------------------------------------------


  Excited state 12 (A)                                             [converged]
  ----------------------------------------------------------------------------
  Term symbol:  13 (-) A                                    R^2 =  1.53654e-11

  Total energy:                                           -424.6732626576 a.u.
  Excitation energy:                                             314.030133 eV

  Osc. strength:                                                      0.033606
  Trans. dip. moment [a.u.]:           [  -0.033748,   -0.006229,    0.056483]
  <i|r^2|0> [a.u.]:                    [   0.066171,   -0.071645,   -0.041122]

  V1^2 = 0.8763, V2^2 = 0.1237

  Important amplitudes:
     core i     occ j      vir a      vir b          v   
    ------------------------------------------------------
     5 (A) A              27 (A) A                -0.5252
     5 (A) B              27 (A) B                -0.5252
    ------------------------------------------------------
  ----------------------------------------------------------------------------


  Excited state 13 (A)                                             [converged]
  ----------------------------------------------------------------------------
  Term symbol:  14 (-) A                                    R^2 =  6.55555e-11

  Total energy:                                           -424.6704153330 a.u.
  Excitation energy:                                             314.107613 eV

  Osc. strength:                                                      0.000000
  Trans. dip. moment [a.u.]:           [   0.000000,   -0.000000,   -0.000000]
  <i|r^2|0> [a.u.]:                    [  -0.000000,   -0.000000,    0.000000]

  V1^2 = 0.8566, V2^2 = 0.1434

  Important amplitudes:
     core i     occ j      vir a      vir b          v   
    ------------------------------------------------------
     5 (A) B              28 (A) B                 0.4585
     5 (A) A              28 (A) A                -0.4585
    ------------------------------------------------------
  ----------------------------------------------------------------------------


  Excited state 14 (A)                                             [converged]
  ----------------------------------------------------------------------------
  Term symbol:  15 (-) A                                    R^2 =  2.14499e-11

  Total energy:                                           -424.6655457648 a.u.
  Excitation energy:                                             314.240121 eV

  Osc. strength:                                                      0.034348
  Trans. dip. moment [a.u.]:           [  -0.036738,   -0.047596,   -0.029094]
  <i|r^2|0> [a.u.]:                    [   0.076027,   -0.487099,    0.010721]

  V1^2 = 0.8710, V2^2 = 0.1290

  Important amplitudes:
     core i     occ j      vir a      vir b          v   
    ------------------------------------------------------
     5 (A) A              26 (A) A                 0.4882
     5 (A) B              26 (A) B                 0.4882
    ------------------------------------------------------
  ----------------------------------------------------------------------------


  Excited state 15 (A)                                             [converged]
  ----------------------------------------------------------------------------
  Term symbol:  16 (-) A                                    R^2 =  7.92274e-12

  Total energy:                                           -424.6576807481 a.u.
  Excitation energy:                                             314.454139 eV

  Osc. strength:                                                      0.037373
  Trans. dip. moment [a.u.]:           [  -0.057034,    0.035179,   -0.018993]
  <i|r^2|0> [a.u.]:                    [   0.128602,    0.358829,    0.012638]

  V1^2 = 0.8750, V2^2 = 0.1250

  Important amplitudes:
     core i     occ j      vir a      vir b          v   
    ------------------------------------------------------
     5 (A) A              29 (A) A                -0.3253
     5 (A) B              29 (A) B                -0.3253
    ------------------------------------------------------
  ----------------------------------------------------------------------------


  Excited state 16 (A)                                             [converged]
  ----------------------------------------------------------------------------
  Term symbol:  17 (-) A                                    R^2 =  2.06113e-11

  Total energy:                                           -424.6264624925 a.u.
  Excitation energy:                                             315.303631 eV

  Osc. strength:                                                      0.014527
  Trans. dip. moment [a.u.]:           [   0.009648,    0.037632,   -0.019269]
  <i|r^2|0> [a.u.]:                    [  -0.041290,    0.359656,   -0.010725]

  V1^2 = 0.8617, V2^2 = 0.1383

  Important amplitudes:
     core i     occ j      vir a      vir b          v   
    ------------------------------------------------------
     5 (A) A              29 (A) A                -0.4695
     5 (A) B              29 (A) B                -0.4695
    ------------------------------------------------------
  ----------------------------------------------------------------------------


  Excited state 17 (A)                                             [converged]
  ----------------------------------------------------------------------------
  Term symbol:  18 (-) A                                    R^2 =  2.68197e-11

  Total energy:                                           -424.2420999410 a.u.
  Excitation energy:                                             325.762668 eV

  Osc. strength:                                                      0.000000
  Trans. dip. moment [a.u.]:           [  -0.000000,   -0.000000,    0.000000]
  <i|r^2|0> [a.u.]:                    [   0.000000,   -0.000000,    0.000000]

  V1^2 = 0.0410, V2^2 = 0.9590

  Important amplitudes:
     core i     occ j      vir a      vir b          v   
    ------------------------------------------------------
     5 (A) B   21 (A) A   22 (A) A   22 (A) B     -0.4866
     5 (A) A   21 (A) B   22 (A) A   22 (A) B     -0.4866
    ------------------------------------------------------
  ----------------------------------------------------------------------------


  Excited state 18 (A)                                             [converged]
  ----------------------------------------------------------------------------
  Term symbol:  19 (-) A                                    R^2 =  1.72342e-11

  Total energy:                                           -424.2385292927 a.u.
  Excitation energy:                                             325.859830 eV

  Osc. strength:                                                      0.001276
  Trans. dip. moment [a.u.]:           [  -0.004317,   -0.011185,    0.004013]
  <i|r^2|0> [a.u.]:                    [   0.012877,   -0.109910,    0.001298]

  V1^2 = 0.0457, V2^2 = 0.9543

  Important amplitudes:
     core i     occ j      vir a      vir b          v   
    ------------------------------------------------------
     5 (A) A   21 (A) B   22 (A) A   22 (A) B      0.4849
     5 (A) B   21 (A) A   22 (A) A   22 (A) B     -0.4849
    ------------------------------------------------------
  ----------------------------------------------------------------------------


  Excited state 19 (A)                                         [not converged]
  ----------------------------------------------------------------------------
  Term symbol:  20 (-) A                                    R^2 =  9.63612e-05

  Total energy:                                           -424.0505200042 a.u.
  Excitation energy:                                             330.975823 eV


  V1^2 = 0.8485, V2^2 = 0.1515

  Important amplitudes:
     core i     occ j      vir a      vir b          v   
    ------------------------------------------------------
     5 (A) A              30 (A) A                 0.5873
     5 (A) B              30 (A) B                -0.5873
    ------------------------------------------------------
  ----------------------------------------------------------------------------


  Excited state 20 (A)                                         [not converged]
  ----------------------------------------------------------------------------
  Term symbol:  21 (-) A                                    R^2 =  3.51970e-04

  Total energy:                                           -424.0456794595 a.u.
  Excitation energy:                                             331.107541 eV


  V1^2 = 0.8481, V2^2 = 0.1519

  Important amplitudes:
     core i     occ j      vir a      vir b          v   
    ------------------------------------------------------
     5 (A) B              30 (A) B                -0.5819
     5 (A) A              30 (A) A                -0.5818
    ------------------------------------------------------
  ----------------------------------------------------------------------------


--------------------------------------------------------------------------------
  Time of ADC calculation:  CPU 3298.91 s  wall 2025.33 s
================================================================================
 
 --------------------------------------------------------------
 
                    Orbital Energies (a.u.)
 --------------------------------------------------------------
 
 Alpha MOs
 -- Occupied --
-26.522 -26.502 -26.471 -26.135 -11.721  -1.905  -1.811  -1.750
 -1.347  -1.091  -0.983  -0.969  -0.926  -0.836  -0.815  -0.809
 -0.781  -0.770  -0.466  -0.466  -0.384
 -- Virtual --
 -0.077   0.290   0.318   0.358   0.584   0.604   0.631   0.652
  1.201   1.222   1.241   1.274   1.275   1.302   1.494   1.502
  1.507   1.533   1.540   1.552   1.627   1.629   1.654   1.819
  1.832   1.861   1.966   1.984   1.999   2.028   2.035   2.061
  2.177   2.203   2.255   2.267   2.305   2.305   2.317   2.322
  2.351   2.580   2.718   2.766   2.995   3.023   3.261   3.317
  3.373   3.999   4.466   4.494   4.622   4.974
 
 Beta MOs
 -- Occupied --
-26.522 -26.502 -26.471 -26.135 -11.721  -1.905  -1.811  -1.750
 -1.347  -1.091  -0.983  -0.969  -0.926  -0.836  -0.815  -0.809
 -0.781  -0.770  -0.466  -0.466  -0.384
 -- Virtual --
 -0.077   0.290   0.318   0.358   0.584   0.604   0.631   0.652
  1.201   1.222   1.241   1.274   1.275   1.302   1.494   1.502
  1.507   1.533   1.540   1.552   1.627   1.629   1.654   1.819
  1.832   1.861   1.966   1.984   1.999   2.028   2.035   2.061
  2.177   2.203   2.255   2.267   2.305   2.305   2.317   2.322
  2.351   2.580   2.718   2.766   2.995   3.023   3.261   3.317
  3.373   3.999   4.466   4.494   4.622   4.974
 --------------------------------------------------------------
 
          Ground-State Mulliken Net Atomic Charges

     Atom                 Charge (a.u.)    Spin (a.u.)
  --------------------------------------------------------
      1 C                     1.145029       0.000000
      2 F                    -0.129642       0.000000
      3 F                    -0.259584       0.000000
      4 F                    -0.561572       0.000000
      5 F                    -0.194231       0.000000
  --------------------------------------------------------
  Sum of atomic charges =     0.000000
  Sum of spin   charges =     0.000000

 -----------------------------------------------------------------
                    Cartesian Multipole Moments
 -----------------------------------------------------------------
    Charge (ESU x 10^10)
                 0.0000
    Dipole Moment (Debye)
         X       2.5426      Y       6.1919      Z      -2.6770
       Tot       7.2090
    Quadrupole Moments (Debye-Ang)
        XX     -28.1010     XY      -1.8667     YY      -6.5007
        XZ       3.2432     YZ      -2.3347     ZZ     -25.3207
    Octopole Moments (Debye-Ang^2)
       XXX      58.6182    XXY     -54.2929    XYY      11.1781
       YYY    -120.5351    XXZ      -4.7451    XYZ       1.8846
       YYZ      -6.0893    XZZ      19.4895    YZZ     -55.2190
       ZZZ      -2.7533
    Hexadecapole Moments (Debye-Ang^3)
      XXXX    -168.8804   XXXY     100.7608   XXYY    -185.9403
      XYYY      87.4076   YYYY    -863.6636   XXXZ      14.4716
      XXYZ       5.2834   XYYZ       5.9185   YYYZ       4.0371
      XXZZ     -45.3613   XYZZ      33.7712   YYZZ    -178.1039
      XZZZ      10.7313   YZZZ      21.1881   ZZZZ     -94.4342
 -----------------------------------------------------------------
Archival summary:
1\1\tp-linux1\SP\HF\6-31G*\41\thomas\FriMar1715:09:002017FriMar1715:09:002017\0\\#,HF,6-31G*,\\0,1\C\F,1,1.22793\F,1,1.28206,2,116.544\F,1,1.35625,2,112.612,3,127.395,0\F,1,2.81045,2,101.625,3,-118.233,0\\HF=-435.348155\\@

 Total job time:  2029.58s(wall), 3313.96s(cpu) 
 Fri Mar 17 15:09:00 2017

        *************************************************************
        *                                                           *
        *  Thank you very much for using Q-Chem.  Have a nice day.  *
        *                                                           *
        *************************************************************


0 sent ACK to 0 
now end server 0 ... 
cleanup process ... done
