
Running Job 1 of 2 ddtraj3t8.inp
qchem ddtraj3t8.inp_26229.0 /scratch/qchem/qchem26229/ 1
/mnt/software/qchem/bin/mpi/mpirun_qchem -machinefile /mnt/software/qchem/bin/mpi/machines -np 1 /mnt/software/qchem/exe/qcprog.exe ddtraj3t8.inp_26229.0 /scratch/qchem/qchem26229/

Process 0 of 1 is on tp-linux1 - thread support 0
initial socket setup ...start
initial socket setup ...done 
now start server 0 ... 

cmd = ssh tp-linux1 /mnt/software/qchem/bin/get_hostid 1207196100 > /scratch/qchem/qchem26229/lic.dat
                  Welcome to Q-Chem
     A Quantum Leap Into The Future Of Chemistry


 Q-Chem 4.3, Q-Chem, Inc., Pleasanton, CA (2015)

 Y. Shao,  Z. Gan,  E. Epifanovsky,  A. T. B. Gilbert,  M. Wormit,  
 J. Kussmann,  A. W. Lange,  A. Behn,  J. Deng,  X. Feng,  D. Ghosh,  
 M. Goldey,  P. R. Horn,  L. D. Jacobson,  I. Kaliman,  R. Z. Khaliullin,  
 T. Kus,  A. Landau,  J. Liu,  E. I. Proynov,  Y. M. Rhee,  R. M. Richard,  
 M. A. Rohrdanz,  R. P. Steele,  E. J. Sundstrom,  H. L. Woodcock III,  
 P. M. Zimmerman,  D. Zuev,  B. Albrecht,  E. Alguire,  B. Austin,  
 S. A. Baeppler,  G. J. O. Beran,  Y. A. Bernard,  E. Berquist,  
 K. Brandhorst,  K. B. Bravaya,  S. T. Brown,  D. Casanova,  C.-M. Chang,  
 Y. Chen,  S. H. Chien,  K. D. Closser,  D. L. Crittenden,  M. Diedenhofen,  
 R. A. DiStasio Jr.,  H. Do,  A. D. Dutoi,  R. G. Edgar,  P.-T. Fang,  
 S. Fatehi,  Q. Feng,  L. Fusti-Molnar,  A. Ghysels,  
 A. Golubeva-Zadorozhnaya,  J. Gomes,  A. Gunina,  M. W. D. Hanson-Heine,  
 P. H. P. Harbach,  A. W. Hauser,  E. G. Hohenstein,  Z. C. Holden,  K. Hui,  
 T.-C. Jagau,  H. Ji,  B. Kaduk,  K. Khistyaev,  Jaehoon Kim,  Jihan Kim,  
 R. A. King,  P. Klunzinger,  D. Kosenkov,  T. Kowalczyk,  C. M. Krauter,  
 K. U. Lao,  A. Laurent,  K. V. Lawler,  S. Lehtola,  S. V. Levchenko,  
 C. Y. Lin,  Y.-S. Lin,  F. Liu,  E. Livshits,  R. C. Lochan,  A. Luenser,  
 P. Manohar,  S. F. Manzer,  S.-P. Mao,  N. Mardirossian,  A. V. Marenich,  
 L. A. Martinez-Martinez,  S. A. Maurer,  N. J. Mayhall,  K. Nanda,  
 C. M. Oana,  R. Olivares-Amaya,  D. P. O'Neill,  J. A. Parkhill,  
 T. M. Perrine,  R. Peverati,  P. A. Pieniazek,  F. Plasser,  A. Prociuk,  
 D. R. Rehn,  E. Rosta,  N. J. Russ,  N. Sergueev,  S. M. Sharada,  
 S. Sharma,  D. W. Small,  A. Sodt,  T. Stauch,  T. Stein,  D. Stuck,  
 Y.-C. Su,  A. J. W. Thom,  T. Tsuchimochi,  L. Vogt,  O. Vydrov,  T. Wang,  
 M. A. Watson,  J. Wenzel,  A. White,  C. F. Williams,  V. Vanovschi,  
 S. Yeganeh,  S. R. Yost,  Z.-Q. You,  I. Y. Zhang,  X. Zhang,  Y. Zhao,  
 B. R. Brooks,  G. K. L. Chan,  D. M. Chipman,  C. J. Cramer,  
 W. A. Goddard III,  M. S. Gordon,  W. J. Hehre,  A. Klamt,  
 H. F. Schaefer III,  M. W. Schmidt,  C. D. Sherrill,  D. G. Truhlar,  
 A. Warshel,  X. Xu,  A. Aspuru-Guzik,  R. Baer,  A. T. Bell,  N. A. Besley,  
 J.-D. Chai,  A. Dreuw,  B. D. Dunietz,  T. R. Furlani,  S. R. Gwaltney,  
 C.-P. Hsu,  Y. Jung,  J. Kong,  D. S. Lambrecht,  W. Liang,  C. Ochsenfeld,  
 V. A. Rassolov,  L. V. Slipchenko,  J. E. Subotnik,  T. Van Voorhis,  
 J. M. Herbert,  A. I. Krylov,  P. M. W. Gill,  M. Head-Gordon

 Contributors to earlier versions of Q-Chem not listed above: 
 R. D. Adamson,  J. Baker,  E. F. C. Byrd,  A. K. Chakraborty,  C.-L. Cheng,  
 H. Dachsel,  R. J. Doerksen,  G. Hawkins,  A. Heyden,  S. Hirata,  
 G. Kedziora,  F. J. Keil,  C. Kelley,  P. P. Korambath,  W. Kurlancheek,  
 A. M. Lee,  M. S. Lee,  D. Liotard,  I. Lotan,  P. E. Maslen,  N. Nair,  
 D. Neuhauser,  R. Olson,  B. Peters,  J. Ritchie,  N. E. Schultz,  
 N. Shenvi,  A. C. Simmonett,  K. S. Thanthiriwatte,  Q. Wu,  W. Zhang

 Please cite Q-Chem as follows:
 Y. Shao et al., Mol. Phys. 113, 184-215 (2015)
 DOI: 10.1080/00268976.2014.952696

 Q-Chem 4.3.0 for Intel X86 Linux

 Parts of Q-Chem use Armadillo 5.200.1 (Boston Tea Smuggler).
 http://arma.sourceforge.net/

 Q-Chem begins on Sun Mar 19 04:26:44 2017  

Host: 
0

     Scratch files written to /scratch/qchem/qchem26229//
 Nov1815 1189b_ 19540  19532 5443   
 Parallel job on  1  processors
Processing $rem in /mnt/software/qchem/config/preferences.
 MEM_TOTAL  2000 

Checking the input file for inconsistencies... 	...done.

--------------------------------------------------------------
User input:
--------------------------------------------------------------
$comment
XAS calculation for the 2b valence excited for water using cvs-adc(2)-x + 6-311+G* basis set
job 1 - determination of HF orbitals
$end

$molecule
0 1
6  -0.532853  2.503425  -0.131205
9  0.589857  2.364411  -0.008888
9  -1.154796  3.242319  0.810721
9  -1.207005  1.16078  0.478351
9  -1.129633  2.543077  -1.197796
$end

$rem
jobtype      sp
sym_ignore true
exchange     hf
basis        6-31G*
unrestricted true
$end

--------------------------------------------------------------
 ----------------------------------------------------------------
             Standard Nuclear Orientation (Angstroms)
    I     Atom           X                Y                Z
 ----------------------------------------------------------------
    1      C      -0.5328530000     2.5034250000    -0.1312050000
    2      F       0.5898570000     2.3644110000    -0.0088880000
    3      F      -1.1547960000     3.2423190000     0.8107210000
    4      F      -1.2070050000     1.1607800000     0.4783510000
    5      F      -1.1296330000     2.5430770000    -1.1977960000
 ----------------------------------------------------------------
 Nuclear Repulsion Energy =   207.4860996049 hartrees
 There are       21 alpha and       21 beta electrons
 Requested basis set is 6-31G(d)
 There are 20 shells and 75 basis functions

 Total QAlloc Memory Limit   2000 MB
 Mega-Array Size        61 MB
 MEM_STATIC part        62 MB

                       Distance Matrix (Angstroms)
             C (  1)   F (  2)   F (  3)   F (  4)
   F (  2)  1.137877
   F (  3)  1.349075  2.118088
   F (  4)  1.621337  2.216944  2.108554
   F (  5)  1.222839  2.098111  2.126902  2.173983
 
 tim1(1): 
  0.000000000000000E+000
 tim1(2): 
  0.000000000000000E+000
 A cutoff of  1.0D-08 yielded    199 shell pairs
 There are      2962 function pairs
 
 -------------------------------------------------------
 OpenMP Integral Computing Module                       
 Release: version 1.0, May 2013, Q-Chem Inc. Pittsburgh 
 -------------------------------------------------------
 Integral Job Info:
 Integral job number is                      11
 Integral operator is                         1
 short-range coefficients                     0
 long-range coefficients              100000000
 Omega coefficients                           0
 if combine SR and LR in K                    0
 Integral screening is                        0
 Integral computing path is                   2
 max size of driver memory is            800000
 size of driver memory is                593474
 size of scratch memory is              2260544
 max col of scratch BK array               1296
 max len of scratch array in speh3          155
 max len of scratch index in speh4           18
 max int batch size is                      520
 min int batch size is                       52
 fixed nKL is                                52
 max L of basis functions is                  2
 order of int derivative is                   0
 number of shells is                         20
 number of basis is                          75
 number of cartesian basis is                75
 number of contracted shell pairs           199
 number of primitive shell pairs            983
 maxK2 (contraction) of shell pair           36
 max number of K2 of shell pair               1
 max number of CS2 of shell pair             28
 max number of PS2 of shell pair            180
 mem total for path MDJ                   21832
 -------------------------------------------------------
 Smallest overlap matrix eigenvalue = 1.69E-03

 Scale SEOQF with 1.000000e+00/1.000000e-01/1.000000e+00

 Standard Electronic Orientation quadrupole field applied
 Nucleus-field energy     =     0.0000000104 hartrees
 Guess from superposition of atomic densities
 Warning:  Energy on first SCF cycle will be non-variational
 An unrestricted Hartree-Fock SCF calculation will be
 performed using Pulay DIIS extrapolation
 SCF converges when DIIS error is below 1.0E-05
 using 8 threads for integral computing 
 ---------------------------------------
  Cycle       Energy         DIIS Error
 ---------------------------------------
    1    -436.6628539293      9.44E-02
    2    -435.3423527585      1.86E-02
    3    -435.4758518713      1.16E-02
    4    -435.5354698494      1.10E-03
    5    -435.5363837822      4.08E-04
    6    -435.5365323365      1.13E-04
    7    -435.5365451040      4.74E-05
    8    -435.5365473350      7.81E-06 Convergence criterion met
 ---------------------------------------
 <S^2> = 0.0000
 SCF time:  CPU 8.61 s  wall 5.60 s
 SCF   energy in the final basis set = -435.5365473350
 Total energy in the final basis set = -435.5365473350
 
 --------------------------------------------------------------
 
                    Orbital Energies (a.u.)
 --------------------------------------------------------------
 
 Alpha MOs
 -- Occupied --
-26.475 -26.428 -26.362 -26.225 -11.630  -1.911  -1.792  -1.672
 -1.490  -1.051  -0.963  -0.936  -0.914  -0.796  -0.779  -0.755
 -0.713  -0.690  -0.571  -0.566  -0.555
 -- Virtual --
  0.239   0.368   0.432   0.524   0.629   0.678   0.741   0.812
  1.214   1.266   1.300   1.316   1.322   1.441   1.511   1.535
  1.574   1.579   1.615   1.631   1.712   1.719   1.787   1.872
  1.912   1.987   2.020   2.068   2.088   2.105   2.199   2.207
  2.263   2.280   2.309   2.348   2.356   2.461   2.492   2.571
  2.737   2.868   3.093   3.104   3.275   3.388   3.487   3.573
  3.610   4.367   4.705   4.917   5.562   6.307
 
 Beta MOs
 -- Occupied --
-26.475 -26.428 -26.362 -26.225 -11.630  -1.911  -1.792  -1.672
 -1.490  -1.051  -0.963  -0.936  -0.914  -0.796  -0.779  -0.755
 -0.713  -0.690  -0.571  -0.566  -0.555
 -- Virtual --
  0.239   0.368   0.432   0.524   0.629   0.678   0.741   0.812
  1.214   1.266   1.300   1.316   1.322   1.441   1.511   1.535
  1.574   1.579   1.615   1.631   1.712   1.719   1.787   1.872
  1.912   1.987   2.020   2.068   2.088   2.105   2.199   2.207
  2.263   2.280   2.309   2.348   2.356   2.461   2.492   2.571
  2.737   2.868   3.093   3.104   3.275   3.388   3.487   3.573
  3.610   4.367   4.705   4.917   5.562   6.307
 --------------------------------------------------------------
 
          Ground-State Mulliken Net Atomic Charges

     Atom                 Charge (a.u.)    Spin (a.u.)
  --------------------------------------------------------
      1 C                     1.210555       0.000000
      2 F                    -0.091859       0.000000
      3 F                    -0.350092       0.000000
      4 F                    -0.556840       0.000000
      5 F                    -0.211765       0.000000
  --------------------------------------------------------
  Sum of atomic charges =     0.000000
  Sum of spin   charges =     0.000000

 -----------------------------------------------------------------
                    Cartesian Multipole Moments
 -----------------------------------------------------------------
    Charge (ESU x 10^10)
                 0.0000
    Dipole Moment (Debye)
         X       2.1861      Y       2.1086      Z      -1.7159
       Tot       3.4885
    Quadrupole Moments (Debye-Ang)
        XX     -26.7156     XY       3.0279     YY     -16.5597
        XZ       1.6574     YZ      -3.5954     ZZ     -24.5342
    Octopole Moments (Debye-Ang^2)
       XXX      53.8393    XXY     -60.3190    XYY      22.8019
       YYY    -148.3050    XXZ      -1.8955    XYZ       3.1856
       YYZ      -9.6443    XZZ      17.9376    YZZ     -57.6146
       ZZZ      -0.3920
    Hexadecapole Moments (Debye-Ang^3)
      XXXX    -150.5587   XXXY     120.4551   XXYY    -178.3358
      XYYY     133.0428   YYYY    -819.9681   XXXZ       4.7942
      XXYZ      -2.9245   XYYZ       8.4420   YYYZ     -28.4019
      XXZZ     -38.4390   XYZZ      41.0429   YYZZ    -162.3679
      XZZZ       2.7399   YZZZ       1.2317   ZZZZ     -78.3211
 -----------------------------------------------------------------
Archival summary:
1\1\tp-linux1\SP\HF\6-31G*\41\thomas\SunMar1904:26:502017SunMar1904:26:502017\0\\#,HF,6-31G*,\\0,1\C\F,1,1.13788\F,1,1.22284,2,125.397\F,1,1.34907,2,116.534,3,148.982,0\F,1,1.62134,2,105.585,3,-113.054,0\\HF=-435.536547\\@

 Total job time:  5.90s(wall), 10.32s(cpu) 
 Sun Mar 19 04:26:50 2017

        *************************************************************
        *                                                           *
        *  Thank you very much for using Q-Chem.  Have a nice day.  *
        *                                                           *
        *************************************************************


0 sent ACK to 0 
now end server 0 ... 
cleanup process ... done

Running Job 2 of 2 ddtraj3t8.inp
qchem ddtraj3t8.inp_26229.1 /scratch/qchem/qchem26229/ 1
/mnt/software/qchem/bin/mpi/mpirun_qchem -machinefile /mnt/software/qchem/bin/mpi/machines -np 1 /mnt/software/qchem/exe/qcprog.exe ddtraj3t8.inp_26229.1 /scratch/qchem/qchem26229/

Process 0 of 1 is on tp-linux1 - thread support 0
initial socket setup ...start
initial socket setup ...done 
now start server 0 ... 

cmd = ssh tp-linux1 /mnt/software/qchem/bin/get_hostid 1677642192 > /scratch/qchem/qchem26229/lic.dat
                  Welcome to Q-Chem
     A Quantum Leap Into The Future Of Chemistry


 Q-Chem 4.3, Q-Chem, Inc., Pleasanton, CA (2015)

 Y. Shao,  Z. Gan,  E. Epifanovsky,  A. T. B. Gilbert,  M. Wormit,  
 J. Kussmann,  A. W. Lange,  A. Behn,  J. Deng,  X. Feng,  D. Ghosh,  
 M. Goldey,  P. R. Horn,  L. D. Jacobson,  I. Kaliman,  R. Z. Khaliullin,  
 T. Kus,  A. Landau,  J. Liu,  E. I. Proynov,  Y. M. Rhee,  R. M. Richard,  
 M. A. Rohrdanz,  R. P. Steele,  E. J. Sundstrom,  H. L. Woodcock III,  
 P. M. Zimmerman,  D. Zuev,  B. Albrecht,  E. Alguire,  B. Austin,  
 S. A. Baeppler,  G. J. O. Beran,  Y. A. Bernard,  E. Berquist,  
 K. Brandhorst,  K. B. Bravaya,  S. T. Brown,  D. Casanova,  C.-M. Chang,  
 Y. Chen,  S. H. Chien,  K. D. Closser,  D. L. Crittenden,  M. Diedenhofen,  
 R. A. DiStasio Jr.,  H. Do,  A. D. Dutoi,  R. G. Edgar,  P.-T. Fang,  
 S. Fatehi,  Q. Feng,  L. Fusti-Molnar,  A. Ghysels,  
 A. Golubeva-Zadorozhnaya,  J. Gomes,  A. Gunina,  M. W. D. Hanson-Heine,  
 P. H. P. Harbach,  A. W. Hauser,  E. G. Hohenstein,  Z. C. Holden,  K. Hui,  
 T.-C. Jagau,  H. Ji,  B. Kaduk,  K. Khistyaev,  Jaehoon Kim,  Jihan Kim,  
 R. A. King,  P. Klunzinger,  D. Kosenkov,  T. Kowalczyk,  C. M. Krauter,  
 K. U. Lao,  A. Laurent,  K. V. Lawler,  S. Lehtola,  S. V. Levchenko,  
 C. Y. Lin,  Y.-S. Lin,  F. Liu,  E. Livshits,  R. C. Lochan,  A. Luenser,  
 P. Manohar,  S. F. Manzer,  S.-P. Mao,  N. Mardirossian,  A. V. Marenich,  
 L. A. Martinez-Martinez,  S. A. Maurer,  N. J. Mayhall,  K. Nanda,  
 C. M. Oana,  R. Olivares-Amaya,  D. P. O'Neill,  J. A. Parkhill,  
 T. M. Perrine,  R. Peverati,  P. A. Pieniazek,  F. Plasser,  A. Prociuk,  
 D. R. Rehn,  E. Rosta,  N. J. Russ,  N. Sergueev,  S. M. Sharada,  
 S. Sharma,  D. W. Small,  A. Sodt,  T. Stauch,  T. Stein,  D. Stuck,  
 Y.-C. Su,  A. J. W. Thom,  T. Tsuchimochi,  L. Vogt,  O. Vydrov,  T. Wang,  
 M. A. Watson,  J. Wenzel,  A. White,  C. F. Williams,  V. Vanovschi,  
 S. Yeganeh,  S. R. Yost,  Z.-Q. You,  I. Y. Zhang,  X. Zhang,  Y. Zhao,  
 B. R. Brooks,  G. K. L. Chan,  D. M. Chipman,  C. J. Cramer,  
 W. A. Goddard III,  M. S. Gordon,  W. J. Hehre,  A. Klamt,  
 H. F. Schaefer III,  M. W. Schmidt,  C. D. Sherrill,  D. G. Truhlar,  
 A. Warshel,  X. Xu,  A. Aspuru-Guzik,  R. Baer,  A. T. Bell,  N. A. Besley,  
 J.-D. Chai,  A. Dreuw,  B. D. Dunietz,  T. R. Furlani,  S. R. Gwaltney,  
 C.-P. Hsu,  Y. Jung,  J. Kong,  D. S. Lambrecht,  W. Liang,  C. Ochsenfeld,  
 V. A. Rassolov,  L. V. Slipchenko,  J. E. Subotnik,  T. Van Voorhis,  
 J. M. Herbert,  A. I. Krylov,  P. M. W. Gill,  M. Head-Gordon

 Contributors to earlier versions of Q-Chem not listed above: 
 R. D. Adamson,  J. Baker,  E. F. C. Byrd,  A. K. Chakraborty,  C.-L. Cheng,  
 H. Dachsel,  R. J. Doerksen,  G. Hawkins,  A. Heyden,  S. Hirata,  
 G. Kedziora,  F. J. Keil,  C. Kelley,  P. P. Korambath,  W. Kurlancheek,  
 A. M. Lee,  M. S. Lee,  D. Liotard,  I. Lotan,  P. E. Maslen,  N. Nair,  
 D. Neuhauser,  R. Olson,  B. Peters,  J. Ritchie,  N. E. Schultz,  
 N. Shenvi,  A. C. Simmonett,  K. S. Thanthiriwatte,  Q. Wu,  W. Zhang

 Please cite Q-Chem as follows:
 Y. Shao et al., Mol. Phys. 113, 184-215 (2015)
 DOI: 10.1080/00268976.2014.952696

 Q-Chem 4.3.0 for Intel X86 Linux

 Parts of Q-Chem use Armadillo 5.200.1 (Boston Tea Smuggler).
 http://arma.sourceforge.net/

 Q-Chem begins on Sun Mar 19 04:26:53 2017  

Host: 
0

     Scratch files written to /scratch/qchem/qchem26229//
 Nov1815 1189b_ 19540  19532 5443   
 Parallel job on  1  processors
Processing $rem in /mnt/software/qchem/config/preferences.
 MEM_TOTAL  2000 

Checking the input file for inconsistencies... 	...done.

--------------------------------------------------------------
User input:
--------------------------------------------------------------

$comment
job3 - cvs-adc(2) calculation
$end

$molecule
read
$end

$rem
mem_total 3000
mem_static 1500
sym_ignore true
scf_guess read
method cvs-adc(2)
basis 6-31G*
ee_singlets 20
cc_rest_occ 5                  !only excitations from the lowest N orbitals
unrestricted  true
max_scf_cycles 200
$end
--------------------------------------------------------------
 ----------------------------------------------------------------
             Standard Nuclear Orientation (Angstroms)
    I     Atom           X                Y                Z
 ----------------------------------------------------------------
    1      C      -0.5328530000     2.5034250000    -0.1312050000
    2      F       0.5898570000     2.3644110000    -0.0088880000
    3      F      -1.1547960000     3.2423190000     0.8107210000
    4      F      -1.2070050000     1.1607800000     0.4783510000
    5      F      -1.1296330000     2.5430770000    -1.1977960000
 ----------------------------------------------------------------
 Nuclear Repulsion Energy =   207.4860996049 hartrees
 There are       21 alpha and       21 beta electrons
 Requested basis set is 6-31G(d)
 There are 20 shells and 75 basis functions

 Total QAlloc Memory Limit   3000 MB
 Mega-Array Size      1467 MB
 MEM_STATIC part      1500 MB

                       Distance Matrix (Angstroms)
             C (  1)   F (  2)   F (  3)   F (  4)
   F (  2)  1.137877
   F (  3)  1.349075  2.118088
   F (  4)  1.621337  2.216944  2.108554
   F (  5)  1.222839  2.098111  2.126902  2.173983
 
 tim1(1): 
  0.000000000000000E+000
 tim1(2): 
  0.000000000000000E+000
 A cutoff of  1.0D-11 yielded    204 shell pairs
 There are      2979 function pairs
 
 -------------------------------------------------------
 OpenMP Integral Computing Module                       
 Release: version 1.0, May 2013, Q-Chem Inc. Pittsburgh 
 -------------------------------------------------------
 Integral Job Info:
 Integral job number is                      11
 Integral operator is                         1
 short-range coefficients                     0
 long-range coefficients              100000000
 Omega coefficients                           0
 if combine SR and LR in K                    0
 Integral screening is                        0
 Integral computing path is                   2
 max size of driver memory is            800000
 size of driver memory is                593474
 size of scratch memory is              2260544
 max col of scratch BK array               1296
 max len of scratch array in speh3          155
 max len of scratch index in speh4           18
 max int batch size is                      520
 min int batch size is                       52
 fixed nKL is                                52
 max L of basis functions is                  2
 order of int derivative is                   0
 number of shells is                         20
 number of basis is                          75
 number of cartesian basis is                75
 number of contracted shell pairs           204
 number of primitive shell pairs           1072
 maxK2 (contraction) of shell pair           36
 max number of K2 of shell pair               1
 max number of CS2 of shell pair             37
 max number of PS2 of shell pair            222
 mem total for path MDJ                   21832
 -------------------------------------------------------
 Smallest overlap matrix eigenvalue = 1.69E-03

 Scale SEOQF with 1.000000e+00/1.000000e-01/1.000000e+00

 Standard Electronic Orientation quadrupole field applied
 Nucleus-field energy     =     0.0000000104 hartrees
 Guess MOs from SCF MO coefficient file
 Reading MOs from coefficient file
 Reading MOs from coefficient file
 An unrestricted Hartree-Fock SCF calculation will be
 performed using Pulay DIIS extrapolation
 SCF converges when DIIS error is below 1.0E-08
 using 8 threads for integral computing 
 ---------------------------------------
  Cycle       Energy         DIIS Error
 ---------------------------------------
    1    -435.5365474274      2.46E-06
    2    -435.5365474321      1.14E-06
    3    -435.5365474333      5.86E-07
    4    -435.5365474337      6.82E-08
    5    -435.5365474337      3.35E-08
    6    -435.5365474337      7.69E-09 Convergence criterion met
 ---------------------------------------
 <S^2> = 0.0000
 SCF time:  CPU 6.32 s  wall 1.59 s
 SCF   energy in the final basis set = -435.5365474337
 Total energy in the final basis set = -435.5365474337
================================================================================
|                                                                              |
|                                 A D C  M A N                                 |
|                                                                              |
 ------------------------------------------------------------------------------ 
|                                                                              |
| Components:                                                                  |
|                                                                              |
| - libvmm - 1.2-release                                                       |
|   Authors:                                                                   |
|   Evgeny Epifanovsky, Ilya Kaliman                                           |
|                                                                              |
| - libtensor - 2.4-trunk                                                      |
|   Authors:                                                                   |
|   Evgeny Epifanovsky, Michael Wormit, Dmitry Zuev, Sam Manzer                |
|                                                                              |
| - libwfa - 1.1-beta                                                          |
|   Authors:                                                                   |
|   Felix Plasser, Stefanie Baeppler, Benjamin Thomitzni, Michael Wormit       |
|                                                                              |
| - libadc - 1.0-beta                                                          |
|   Authors:                                                                   |
|   Michael Wormit, Philipp H. P. Harbach, Caroline Krauter, Dirk Rehn,        |
|   Matthias Schneider, Jan Wenzel                                             |
|                                                                              |
| - adcman - 2.4-beta                                                          |
|   Authors:                                                                   |
|   Michael Wormit, Philipp H. P. Harbach, Caroline Krauter, Dirk Rehn,        |
|   Jan Wenzel, Andreas Dreuw                                                  |
|                                                                              |
| Authors of earlier versions of ADCMAN:                                       |
| Andreas Dreuw, Jan Hendrik Starcke, Dirk Rehn, Michael Wormit                |
|                                                                              |
================================================================================

 
 Alpha MOs, Unrestricted
 -- Occupied --                  
-26.475 -26.428 -26.361 -26.225 -11.630  -1.911  -1.792  -1.671
  1 A     2 A     3 A     4 A     5 A     6 A     7 A     8 A                  
 -1.490  -1.051  -0.963  -0.936  -0.914  -0.796  -0.779  -0.755
  9 A    10 A    11 A    12 A    13 A    14 A    15 A    16 A                  
 -0.713  -0.690  -0.571  -0.566  -0.555
 17 A    18 A    19 A    20 A    21 A                                          
 -- Virtual --                   
  0.239   0.368   0.432   0.524   0.629   0.678   0.741   0.812
 22 A    23 A    24 A    25 A    26 A    27 A    28 A    29 A                  
  1.214   1.266   1.300   1.316   1.322   1.441   1.511   1.535
 30 A    31 A    32 A    33 A    34 A    35 A    36 A    37 A                  
  1.574   1.579   1.615   1.631   1.712   1.719   1.787   1.872
 38 A    39 A    40 A    41 A    42 A    43 A    44 A    45 A                  
  1.912   1.987   2.020   2.068   2.088   2.105   2.199   2.207
 46 A    47 A    48 A    49 A    50 A    51 A    52 A    53 A                  
  2.263   2.280   2.309   2.348   2.356   2.461   2.492   2.571
 54 A    55 A    56 A    57 A    58 A    59 A    60 A    61 A                  
  2.737   2.868   3.093   3.104   3.275   3.388   3.487   3.573
 62 A    63 A    64 A    65 A    66 A    67 A    68 A    69 A                  
  3.610   4.367   4.705   4.917   5.562   6.307
 70 A    71 A    72 A    73 A    74 A    75 A                                  
 
 Beta MOs, Unrestricted
 -- Occupied --                  
-26.475 -26.428 -26.361 -26.225 -11.630  -1.911  -1.792  -1.671
  1 A     2 A     3 A     4 A     5 A     6 A     7 A     8 A                  
 -1.490  -1.051  -0.963  -0.936  -0.914  -0.796  -0.779  -0.755
  9 A    10 A    11 A    12 A    13 A    14 A    15 A    16 A                  
 -0.713  -0.690  -0.571  -0.566  -0.555
 17 A    18 A    19 A    20 A    21 A                                          
 -- Virtual --                   
  0.239   0.368   0.432   0.524   0.629   0.678   0.741   0.812
 22 A    23 A    24 A    25 A    26 A    27 A    28 A    29 A                  
  1.214   1.266   1.300   1.316   1.322   1.441   1.511   1.535
 30 A    31 A    32 A    33 A    34 A    35 A    36 A    37 A                  
  1.574   1.579   1.615   1.631   1.712   1.719   1.787   1.872
 38 A    39 A    40 A    41 A    42 A    43 A    44 A    45 A                  
  1.912   1.987   2.020   2.068   2.088   2.105   2.199   2.207
 46 A    47 A    48 A    49 A    50 A    51 A    52 A    53 A                  
  2.263   2.280   2.309   2.348   2.356   2.461   2.492   2.571
 54 A    55 A    56 A    57 A    58 A    59 A    60 A    61 A                  
  2.737   2.868   3.093   3.104   3.275   3.388   3.487   3.573
 62 A    63 A    64 A    65 A    66 A    67 A    68 A    69 A                  
  3.610   4.367   4.705   4.917   5.562   6.307
 70 A    71 A    72 A    73 A    74 A    75 A                                  
 

--------------------------------------------------------------------------------
                                   HF Summary                                   
--------------------------------------------------------------------------------
  Energy:                                                 -435.5365474337 a.u.
  Dip. moment [a.u.]:                  [ -56.250372,  185.905366,    0.588613]
  Total dipole [Debye]:                                             493.683268
  <r^2> [a.u.]:                        [ 167.823549,  915.300038,   93.201753]
  Total <r^2> [a.u.]:                                              1176.325339
--------------------------------------------------------------------------------

--------------------------------------------------------------------------------
                                 MP(2) Summary                                  
--------------------------------------------------------------------------------
  Energy contribution:                                      -0.8041798745 a.u.
  Total energy:                                           -436.3407273082 a.u.
  Dip. moment [a.u.]:                  [ -56.153767,  186.011577,    0.510096]
  Total dipole [Debye]:                                             493.870083
  <r^2> [a.u.]:                        [ 167.475075,  916.110640,   93.102719]
  Total <r^2> [a.u.]:                                              1176.688434
--------------------------------------------------------------------------------
  Starting Davidson ... 
--------------------------------------------------------------------------------
   It NVec Conv  Avg. Norm  Max. Norm  Conv. states           Remark
--------------------------------------------------------------------------------
        20    0  2.104e-01  1.050e+00 11.0963 n n n n n n n n Guess.
    1   40    0  4.808e-02  6.032e-01 10.9250 n n n n n n n n 
    2   60    0  8.314e-03  9.183e-02 10.9233 n n n n n n n n 
    3   80    0  2.713e-03  3.088e-02 10.9233 n n n n n n n n 
    4  100    0  1.880e-03  2.305e-02 10.9233 n n n n n n n n 
    5   40    0  1.145e-03  1.404e-02 10.9233 n n n n n n n n Subspace collapsed.
    6   60    0  1.342e-03  1.899e-02 10.9233 n n n n n n n n 
    7   80    0  1.261e-03  1.914e-02 10.9233 n n n n n n n n 
    8  100    2  1.101e-03  1.626e-02 10.9233 y y n n n n n n 
    9   40    5  4.853e-04  7.740e-03 10.9233 y y y y n n y n Subspace collapsed.
   10   60    8  3.728e-04  5.644e-03 10.9233 y y y y y y y y 
   11   80   10  2.351e-04  3.296e-03 10.9233 y y y y y y y y 
   12  100   14  2.698e-04  3.724e-03 10.9233 y y y y y y y y 
   13   40   15  1.740e-04  2.597e-03 10.9233 y y y y y y y y Subspace collapsed.
   14   60   16  2.367e-04  3.668e-03 10.9233 y y y y y y y y 
   15   80   16  2.268e-04  3.698e-03 10.9233 y y y y y y y y 
   16  100   16  2.896e-04  4.623e-03 10.9233 y y y y y y y y 
   17   40   16  1.385e-04  2.186e-03 10.9233 y y y y y y y y Subspace collapsed.
   18   58   16  1.229e-04  1.870e-03 10.9233 y y y y y y y y 
   19   74   16  7.717e-05  1.158e-03 10.9233 y y y y y y y y 
   20   77   16  7.706e-05  1.158e-03 10.9233 y y y y y y y y 
   21   78   16  7.756e-05  1.171e-03 10.9233 y y y y y y y y 
   22   79   16  7.856e-05  1.198e-03 10.9233 y y y y y y y y 
   23   79   16  7.856e-05  1.198e-03 10.9233 y y y y y y y y 
   24   99   16  9.021e-05  1.297e-03 10.9233 y y y y y y y y 
   25  100   16  9.091e-05  1.317e-03 10.9233 y y y y y y y y 
   26   32   16  6.249e-05  8.859e-04 10.9233 y y y y y y y y Subspace collapsed.
   27   44   16  8.203e-05  1.204e-03 10.9233 y y y y y y y y 
   28   56   16  8.220e-05  1.319e-03 10.9233 y y y y y y y y 
   29   56   16  8.220e-05  1.319e-03 10.9233 y y y y y y y y 
   30   72   16  9.066e-05  1.429e-03 10.9233 y y y y y y y y 
   31   74   16  9.023e-05  1.430e-03 10.9233 y y y y y y y y 
   32   76   16  9.065e-05  1.431e-03 10.9233 y y y y y y y y 
   33   78   16  9.161e-05  1.452e-03 10.9233 y y y y y y y y 
   34   86   16  8.559e-05  1.236e-03 10.9233 y y y y y y y y 
   35   92   16  3.582e-05  5.179e-04 10.9233 y y y y y y y y 
   36   98   16  1.813e-05  2.872e-04 10.9233 y y y y y y y y 
   37  100   16  1.815e-05  2.872e-04 10.9233 y y y y y y y y 
   38   26   17  8.668e-06  1.228e-04 10.9233 y y y y y y y y Subspace collapsed.
   39   26   17  8.668e-06  1.228e-04 10.9233 y y y y y y y y 
   40   27   17  8.650e-06  1.228e-04 10.9233 y y y y y y y y 
   41   27   17  8.650e-06  1.228e-04 10.9233 y y y y y y y y 
   42   27   17  8.650e-06  1.228e-04 10.9233 y y y y y y y y 
   43   47   18  6.964e-06  1.017e-04 10.9233 y y y y y y y y 
   44   53   18  3.685e-06  6.124e-05 10.9233 y y y y y y y y 
   45   58   18  2.910e-06  5.174e-05 10.9233 y y y y y y y y 
   46   63   18  1.848e-06  3.359e-05 10.9233 y y y y y y y y 
   47   63   18  1.848e-06  3.359e-05 10.9233 y y y y y y y y 
   48   63   18  1.848e-06  3.359e-05 10.9233 y y y y y y y y 
   49   63   18  1.848e-06  3.359e-05 10.9233 y y y y y y y y 
   50   83   18  1.162e-06  2.052e-05 10.9233 y y y y y y y y 
   51   83   18  1.162e-06  2.052e-05 10.9233 y y y y y y y y 
   52   83   18  1.162e-06  2.052e-05 10.9233 y y y y y y y y 
   53   83   18  1.162e-06  2.052e-05 10.9233 y y y y y y y y 
   54  100   18  1.115e-06  1.932e-05 10.9233 y y y y y y y y 
   55   21   18  1.112e-06  1.932e-05 10.9233 y y y y y y y y Subspace collapsed.
   56   27   18  6.442e-07  1.012e-05 10.9233 y y y y y y y y 
   57   32   18  6.749e-07  1.036e-05 10.9233 y y y y y y y y 
   58   37   18  6.907e-07  1.180e-05 10.9233 y y y y y y y y 
   59   41   18  7.479e-07  1.255e-05 10.9233 y y y y y y y y 
--------------------------------------------------------------------------------
  Davidson Summary: 
 ------------------------------------------------------------
  State  0: excitation energy =  10.9233 a.u.   (converged)
  State  1: excitation energy =  10.9972 a.u.   (converged)
  State  2: excitation energy =  11.0883 a.u.   (converged)
  State  3: excitation energy =  11.1763 a.u.   (converged)
  State  4: excitation energy =  11.1791 a.u.   (converged)
  State  5: excitation energy =  11.2476 a.u.   (converged)
  State  6: excitation energy =  11.2967 a.u.   (converged)
  State  7: excitation energy =  11.3627 a.u.   (converged)
  State  8: excitation energy =  11.4687 a.u.   (converged)
  State  9: excitation energy =  11.5184 a.u.   (converged)
  State 10: excitation energy =  11.5223 a.u.   (converged)
  State 11: excitation energy =  11.5388 a.u.   (converged)
  State 12: excitation energy =  11.5536 a.u.   (converged)
  State 13: excitation energy =  11.5799 a.u.   (converged)
  State 14: excitation energy =  11.6467 a.u.   (converged)
  State 15: excitation energy =  11.6598 a.u.   (converged)
  State 16: excitation energy =  12.1136 a.u.   (converged)
  State 17: excitation energy =  12.1209 a.u.   (converged)
  State 18: excitation energy =  12.1587 a.u.   (not converged)
  State 19: excitation energy =  12.1608 a.u.   (not converged)
 ------------------------------------------------------------


--------------------------------------------------------------------------------
                             Excited State Summary
--------------------------------------------------------------------------------

  Excited state  1 (A)                                             [converged]
  ----------------------------------------------------------------------------
  Term symbol:  2 (-) A                                     R^2 =  4.39638e-13

  Total energy:                                           -425.4174666028 a.u.
  Excitation energy:                                             297.237040 eV

  Osc. strength:                                                      0.000000
  Trans. dip. moment [a.u.]:           [   0.000000,    0.000000,   -0.000000]
  <i|r^2|0> [a.u.]:                    [  -0.000000,    0.000000,    0.000000]

  V1^2 = 0.9572, V2^2 = 0.0428

  Important amplitudes:
     core i     occ j      vir a      vir b          v   
    ------------------------------------------------------
     5 (A) B              22 (A) B                 0.6347
     5 (A) A              22 (A) A                -0.6347
    ------------------------------------------------------
  ----------------------------------------------------------------------------


  Excited state  2 (A)                                             [converged]
  ----------------------------------------------------------------------------
  Term symbol:  3 (-) A                                     R^2 =  1.19393e-13

  Total energy:                                           -425.3435591315 a.u.
  Excitation energy:                                             299.248165 eV

  Osc. strength:                                                      0.115799
  Trans. dip. moment [a.u.]:           [   0.031088,    0.117551,   -0.031784]
  <i|r^2|0> [a.u.]:                    [  -0.066172,    1.112654,    0.011998]

  V1^2 = 0.9514, V2^2 = 0.0486

  Important amplitudes:
     core i     occ j      vir a      vir b          v   
    ------------------------------------------------------
     5 (A) A              22 (A) A                 0.6516
     5 (A) B              22 (A) B                 0.6516
    ------------------------------------------------------
  ----------------------------------------------------------------------------


  Excited state  3 (A)                                             [converged]
  ----------------------------------------------------------------------------
  Term symbol:  4 (-) A                                     R^2 =  1.88548e-13

  Total energy:                                           -425.2524435744 a.u.
  Excitation energy:                                             301.727545 eV

  Osc. strength:                                                      0.000000
  Trans. dip. moment [a.u.]:           [   0.000000,   -0.000000,   -0.000000]
  <i|r^2|0> [a.u.]:                    [  -0.000000,   -0.000000,    0.000000]

  V1^2 = 0.9518, V2^2 = 0.0482

  Important amplitudes:
     core i     occ j      vir a      vir b          v   
    ------------------------------------------------------
     5 (A) B              24 (A) B                -0.5406
     5 (A) A              24 (A) A                 0.5406
    ------------------------------------------------------
  ----------------------------------------------------------------------------


  Excited state  4 (A)                                             [converged]
  ----------------------------------------------------------------------------
  Term symbol:  5 (-) A                                     R^2 =  9.77992e-14

  Total energy:                                           -425.1644691493 a.u.
  Excitation energy:                                             304.121451 eV

  Osc. strength:                                                      0.104648
  Trans. dip. moment [a.u.]:           [  -0.051979,    0.038242,    0.099403]
  <i|r^2|0> [a.u.]:                    [   0.118097,    0.374144,   -0.037257]

  V1^2 = 0.9444, V2^2 = 0.0556

  Important amplitudes:
     core i     occ j      vir a      vir b          v   
    ------------------------------------------------------
     5 (A) B              24 (A) B                 0.5672
     5 (A) A              24 (A) A                 0.5672
    ------------------------------------------------------
  ----------------------------------------------------------------------------


  Excited state  5 (A)                                             [converged]
  ----------------------------------------------------------------------------
  Term symbol:  6 (-) A                                     R^2 =  3.22293e-13

  Total energy:                                           -425.1616286628 a.u.
  Excitation energy:                                             304.198745 eV

  Osc. strength:                                                      0.000000
  Trans. dip. moment [a.u.]:           [  -0.000000,    0.000000,    0.000000]
  <i|r^2|0> [a.u.]:                    [   0.000000,    0.000000,   -0.000000]

  V1^2 = 0.9369, V2^2 = 0.0631

  Important amplitudes:
     core i     occ j      vir a      vir b          v   
    ------------------------------------------------------
     5 (A) B              23 (A) B                 0.4732
     5 (A) A              23 (A) A                -0.4732
    ------------------------------------------------------
  ----------------------------------------------------------------------------


  Excited state  6 (A)                                             [converged]
  ----------------------------------------------------------------------------
  Term symbol:  7 (-) A                                     R^2 =  1.34016e-13

  Total energy:                                           -425.0931211013 a.u.
  Excitation energy:                                             306.062930 eV

  Osc. strength:                                                      0.025575
  Trans. dip. moment [a.u.]:           [  -0.013980,   -0.022078,   -0.052229]
  <i|r^2|0> [a.u.]:                    [   0.042264,   -0.184716,    0.040963]

  V1^2 = 0.9191, V2^2 = 0.0809

  Important amplitudes:
     core i     occ j      vir a      vir b          v   
    ------------------------------------------------------
     5 (A) A              23 (A) A                 0.5594
     5 (A) B              23 (A) B                 0.5594
    ------------------------------------------------------
  ----------------------------------------------------------------------------


  Excited state  7 (A)                                             [converged]
  ----------------------------------------------------------------------------
  Term symbol:  8 (-) A                                     R^2 =  1.47615e-13

  Total energy:                                           -425.0440321559 a.u.
  Excitation energy:                                             307.398709 eV

  Osc. strength:                                                      0.000000
  Trans. dip. moment [a.u.]:           [  -0.000000,    0.000000,   -0.000000]
  <i|r^2|0> [a.u.]:                    [   0.000000,    0.000000,    0.000000]

  V1^2 = 0.9429, V2^2 = 0.0571

  Important amplitudes:
     core i     occ j      vir a      vir b          v   
    ------------------------------------------------------
     5 (A) B              29 (A) B                -0.4595
     5 (A) A              29 (A) A                 0.4595
    ------------------------------------------------------
  ----------------------------------------------------------------------------


  Excited state  8 (A)                                             [converged]
  ----------------------------------------------------------------------------
  Term symbol:  9 (-) A                                     R^2 =  1.28655e-13

  Total energy:                                           -424.9780533894 a.u.
  Excitation energy:                                             309.194082 eV

  Osc. strength:                                                      0.093867
  Trans. dip. moment [a.u.]:           [   0.095665,   -0.020626,    0.053049]
  <i|r^2|0> [a.u.]:                    [  -0.203059,   -0.195338,   -0.021502]

  V1^2 = 0.9328, V2^2 = 0.0672

  Important amplitudes:
     core i     occ j      vir a      vir b          v   
    ------------------------------------------------------
     5 (A) A              25 (A) A                 0.5008
     5 (A) B              25 (A) B                 0.5008
    ------------------------------------------------------
  ----------------------------------------------------------------------------


  Excited state  9 (A)                                             [converged]
  ----------------------------------------------------------------------------
  Term symbol:  10 (-) A                                    R^2 =  3.24175e-13

  Total energy:                                           -424.8720759732 a.u.
  Excitation energy:                                             312.077874 eV

  Osc. strength:                                                      0.000000
  Trans. dip. moment [a.u.]:           [  -0.000000,   -0.000000,    0.000000]
  <i|r^2|0> [a.u.]:                    [   0.000000,   -0.000000,   -0.000000]

  V1^2 = 0.9125, V2^2 = 0.0875

  Important amplitudes:
     core i     occ j      vir a      vir b          v   
    ------------------------------------------------------
     5 (A) B              27 (A) B                -0.3945
     5 (A) A              27 (A) A                 0.3945
    ------------------------------------------------------
  ----------------------------------------------------------------------------


  Excited state 10 (A)                                             [converged]
  ----------------------------------------------------------------------------
  Term symbol:  11 (-) A                                    R^2 =  1.59333e-13

  Total energy:                                           -424.8223004449 a.u.
  Excitation energy:                                             313.432335 eV

  Osc. strength:                                                      0.024385
  Trans. dip. moment [a.u.]:           [  -0.026411,   -0.046276,    0.018343]
  <i|r^2|0> [a.u.]:                    [   0.039700,   -0.456733,   -0.027573]

  V1^2 = 0.9090, V2^2 = 0.0910

  Important amplitudes:
     core i     occ j      vir a      vir b          v   
    ------------------------------------------------------
     5 (A) B              26 (A) B                 0.4896
     5 (A) A              26 (A) A                 0.4896
    ------------------------------------------------------
  ----------------------------------------------------------------------------


  Excited state 11 (A)                                             [converged]
  ----------------------------------------------------------------------------
  Term symbol:  12 (-) A                                    R^2 =  1.08300e-13

  Total energy:                                           -424.8183977218 a.u.
  Excitation energy:                                             313.538534 eV

  Osc. strength:                                                      0.000000
  Trans. dip. moment [a.u.]:           [  -0.000000,   -0.000000,    0.000000]
  <i|r^2|0> [a.u.]:                    [   0.000000,   -0.000000,   -0.000000]

  V1^2 = 0.8913, V2^2 = 0.1087

  Important amplitudes:
     core i     occ j      vir a      vir b          v   
    ------------------------------------------------------
     5 (A) A              26 (A) A                 0.5034
     5 (A) B              26 (A) B                -0.5034
    ------------------------------------------------------
  ----------------------------------------------------------------------------


  Excited state 12 (A)                                             [converged]
  ----------------------------------------------------------------------------
  Term symbol:  13 (-) A                                    R^2 =  7.29438e-14

  Total energy:                                           -424.8019225785 a.u.
  Excitation energy:                                             313.986845 eV

  Osc. strength:                                                      0.025540
  Trans. dip. moment [a.u.]:           [  -0.017685,    0.029883,    0.045982]
  <i|r^2|0> [a.u.]:                    [   0.030399,    0.274042,   -0.030515]

  V1^2 = 0.8950, V2^2 = 0.1050

  Important amplitudes:
     core i     occ j      vir a      vir b          v   
    ------------------------------------------------------
     5 (A) A              27 (A) A                -0.4210
     5 (A) B              27 (A) B                -0.4210
    ------------------------------------------------------
  ----------------------------------------------------------------------------


  Excited state 13 (A)                                             [converged]
  ----------------------------------------------------------------------------
  Term symbol:  14 (-) A                                    R^2 =  1.83007e-13

  Total energy:                                           -424.7871157221 a.u.
  Excitation energy:                                             314.389760 eV

  Osc. strength:                                                      0.000000
  Trans. dip. moment [a.u.]:           [  -0.000000,    0.000000,   -0.000000]
  <i|r^2|0> [a.u.]:                    [   0.000000,    0.000000,   -0.000000]

  V1^2 = 0.8896, V2^2 = 0.1104

  Important amplitudes:
     core i     occ j      vir a      vir b          v   
    ------------------------------------------------------
     5 (A) B              25 (A) B                 0.4857
     5 (A) A              25 (A) A                -0.4857
    ------------------------------------------------------
  ----------------------------------------------------------------------------


  Excited state 14 (A)                                             [converged]
  ----------------------------------------------------------------------------
  Term symbol:  15 (-) A                                    R^2 =  1.00116e-13

  Total energy:                                           -424.7608216771 a.u.
  Excitation energy:                                             315.105258 eV

  Osc. strength:                                                      0.048280
  Trans. dip. moment [a.u.]:           [   0.072919,   -0.013897,    0.027269]
  <i|r^2|0> [a.u.]:                    [  -0.144201,   -0.121188,   -0.001928]

  V1^2 = 0.9024, V2^2 = 0.0976

  Important amplitudes:
     core i     occ j      vir a      vir b          v   
    ------------------------------------------------------
     5 (A) A              29 (A) A                 0.5253
     5 (A) B              29 (A) B                 0.5253
    ------------------------------------------------------
  ----------------------------------------------------------------------------


  Excited state 15 (A)                                             [converged]
  ----------------------------------------------------------------------------
  Term symbol:  16 (-) A                                    R^2 =  7.10010e-13

  Total energy:                                           -424.6940445548 a.u.
  Excitation energy:                                             316.922356 eV

  Osc. strength:                                                      0.000000
  Trans. dip. moment [a.u.]:           [   0.000000,    0.000000,   -0.000000]
  <i|r^2|0> [a.u.]:                    [  -0.000000,    0.000000,   -0.000000]

  V1^2 = 0.8825, V2^2 = 0.1175

  Important amplitudes:
     core i     occ j      vir a      vir b          v   
    ------------------------------------------------------
     5 (A) B              28 (A) B                 0.6063
     5 (A) A              28 (A) A                -0.6063
    ------------------------------------------------------
  ----------------------------------------------------------------------------


  Excited state 16 (A)                                             [converged]
  ----------------------------------------------------------------------------
  Term symbol:  17 (-) A                                    R^2 =  5.29049e-13

  Total energy:                                           -424.6808875870 a.u.
  Excitation energy:                                             317.280375 eV

  Osc. strength:                                                      0.006910
  Trans. dip. moment [a.u.]:           [   0.015394,    0.021371,   -0.013975]
  <i|r^2|0> [a.u.]:                    [  -0.041364,    0.189608,   -0.003993]

  V1^2 = 0.8847, V2^2 = 0.1153

  Important amplitudes:
     core i     occ j      vir a      vir b          v   
    ------------------------------------------------------
     5 (A) A              28 (A) A                 0.6207
     5 (A) B              28 (A) B                 0.6207
    ------------------------------------------------------
  ----------------------------------------------------------------------------


  Excited state 17 (A)                                             [converged]
  ----------------------------------------------------------------------------
  Term symbol:  18 (-) A                                    R^2 =  1.44520e-08

  Total energy:                                           -424.2271442823 a.u.
  Excitation energy:                                             329.627358 eV

  Osc. strength:                                                      0.000000
  Trans. dip. moment [a.u.]:           [   0.000000,    0.000000,    0.000000]
  <i|r^2|0> [a.u.]:                    [   0.000000,    0.000000,   -0.000000]

  V1^2 = 0.8770, V2^2 = 0.1230

  Important amplitudes:
     core i     occ j      vir a      vir b          v   
    ------------------------------------------------------
     5 (A) B              30 (A) B                -0.6431
     5 (A) A              30 (A) A                 0.6431
    ------------------------------------------------------
  ----------------------------------------------------------------------------


  Excited state 18 (A)                                             [converged]
  ----------------------------------------------------------------------------
  Term symbol:  19 (-) A                                    R^2 =  6.16817e-08

  Total energy:                                           -424.2198457290 a.u.
  Excitation energy:                                             329.825962 eV

  Osc. strength:                                                      0.008841
  Trans. dip. moment [a.u.]:           [  -0.032555,    0.004736,   -0.003449]
  <i|r^2|0> [a.u.]:                    [   0.047268,    0.046584,    0.003575]

  V1^2 = 0.8757, V2^2 = 0.1243

  Important amplitudes:
     core i     occ j      vir a      vir b          v   
    ------------------------------------------------------
     5 (A) A              30 (A) A                -0.6489
     5 (A) B              30 (A) B                -0.6489
    ------------------------------------------------------
  ----------------------------------------------------------------------------


  Excited state 19 (A)                                         [not converged]
  ----------------------------------------------------------------------------
  Term symbol:  20 (-) A                                    R^2 =  1.25471e-05

  Total energy:                                           -424.1820047487 a.u.
  Excitation energy:                                             330.855667 eV


  V1^2 = 0.8849, V2^2 = 0.1151

  Important amplitudes:
     core i     occ j      vir a      vir b          v   
    ------------------------------------------------------
     5 (A) A              32 (A) A                -0.5530
     5 (A) B              32 (A) B                 0.5530
    ------------------------------------------------------
  ----------------------------------------------------------------------------


  Excited state 20 (A)                                         [not converged]
  ----------------------------------------------------------------------------
  Term symbol:  21 (-) A                                    R^2 =  8.14211e-06

  Total energy:                                           -424.1799336019 a.u.
  Excitation energy:                                             330.912026 eV


  V1^2 = 0.8851, V2^2 = 0.1149

  Important amplitudes:
     core i     occ j      vir a      vir b          v   
    ------------------------------------------------------
     5 (A) A              32 (A) A                 0.5760
     5 (A) B              32 (A) B                 0.5760
    ------------------------------------------------------
  ----------------------------------------------------------------------------


--------------------------------------------------------------------------------
  Time of ADC calculation:  CPU 3584.89 s  wall 2181.53 s
================================================================================
 
 --------------------------------------------------------------
 
                    Orbital Energies (a.u.)
 --------------------------------------------------------------
 
 Alpha MOs
 -- Occupied --
-26.475 -26.428 -26.361 -26.225 -11.630  -1.911  -1.792  -1.671
 -1.490  -1.051  -0.963  -0.936  -0.914  -0.796  -0.779  -0.755
 -0.713  -0.690  -0.571  -0.566  -0.555
 -- Virtual --
  0.239   0.368   0.432   0.524   0.629   0.678   0.741   0.812
  1.214   1.266   1.300   1.316   1.322   1.441   1.511   1.535
  1.574   1.579   1.615   1.631   1.712   1.719   1.787   1.872
  1.912   1.987   2.020   2.068   2.088   2.105   2.199   2.207
  2.263   2.280   2.309   2.348   2.356   2.461   2.492   2.571
  2.737   2.868   3.093   3.104   3.275   3.388   3.487   3.573
  3.610   4.367   4.705   4.917   5.562   6.307
 
 Beta MOs
 -- Occupied --
-26.475 -26.428 -26.361 -26.225 -11.630  -1.911  -1.792  -1.671
 -1.490  -1.051  -0.963  -0.936  -0.914  -0.796  -0.779  -0.755
 -0.713  -0.690  -0.571  -0.566  -0.555
 -- Virtual --
  0.239   0.368   0.432   0.524   0.629   0.678   0.741   0.812
  1.214   1.266   1.300   1.316   1.322   1.441   1.511   1.535
  1.574   1.579   1.615   1.631   1.712   1.719   1.787   1.872
  1.912   1.987   2.020   2.068   2.088   2.105   2.199   2.207
  2.263   2.280   2.309   2.348   2.356   2.461   2.492   2.571
  2.737   2.868   3.093   3.104   3.275   3.388   3.487   3.573
  3.610   4.367   4.705   4.917   5.562   6.307
 --------------------------------------------------------------
 
          Ground-State Mulliken Net Atomic Charges

     Atom                 Charge (a.u.)    Spin (a.u.)
  --------------------------------------------------------
      1 C                     1.210572       0.000000
      2 F                    -0.091885       0.000000
      3 F                    -0.350100       0.000000
      4 F                    -0.556801       0.000000
      5 F                    -0.211787       0.000000
  --------------------------------------------------------
  Sum of atomic charges =     0.000000
  Sum of spin   charges =     0.000000

 -----------------------------------------------------------------
                    Cartesian Multipole Moments
 -----------------------------------------------------------------
    Charge (ESU x 10^10)
                 0.0000
    Dipole Moment (Debye)
         X       2.1860      Y       2.1084      Z      -1.7158
       Tot       3.4882
    Quadrupole Moments (Debye-Ang)
        XX     -26.7156     XY       3.0279     YY     -16.5604
        XZ       1.6572     YZ      -3.5952     ZZ     -24.5344
    Octopole Moments (Debye-Ang^2)
       XXX      53.8391    XXY     -60.3194    XYY      22.8022
       YYY    -148.3076    XXZ      -1.8953    XYZ       3.1853
       YYZ      -9.6440    XZZ      17.9377    YZZ     -57.6151
       ZZZ      -0.3917
    Hexadecapole Moments (Debye-Ang^3)
      XXXX    -150.5586   XXXY     120.4557   XXYY    -178.3375
      XYYY     133.0447   YYYY    -819.9770   XXXZ       4.7938
      XXYZ      -2.9242   XYYZ       8.4415   YYYZ     -28.4019
      XXZZ     -38.4392   XYZZ      41.0436   YYZZ    -162.3697
      XZZZ       2.7396   YZZZ       1.2320   ZZZZ     -78.3218
 -----------------------------------------------------------------
Archival summary:
1\1\tp-linux1\SP\HF\6-31G*\41\thomas\SunMar1905:03:182017SunMar1905:03:182017\0\\#,HF,6-31G*,\\0,1\C\F,1,1.13788\F,1,1.22284,2,125.397\F,1,1.34907,2,116.534,3,148.982,0\F,1,1.62134,2,105.585,3,-113.054,0\\HF=-435.536547\\@

 Total job time:  2185.30s(wall), 3595.28s(cpu) 
 Sun Mar 19 05:03:18 2017

        *************************************************************
        *                                                           *
        *  Thank you very much for using Q-Chem.  Have a nice day.  *
        *                                                           *
        *************************************************************


0 sent ACK to 0 
now end server 0 ... 
cleanup process ... done
