
Running Job 1 of 2 ddtraj5t7.inp
qchem ddtraj5t7.inp_1280.0 /scratch/qchem/qchem1280/ 1
/mnt/software/qchem/bin/mpi/mpirun_qchem -machinefile /mnt/software/qchem/bin/mpi/machines -np 1 /mnt/software/qchem/exe/qcprog.exe ddtraj5t7.inp_1280.0 /scratch/qchem/qchem1280/

Process 0 of 1 is on tp-linux1 - thread support 0
initial socket setup ...start
initial socket setup ...done 
now start server 0 ... 

cmd = ssh tp-linux1 /mnt/software/qchem/bin/get_hostid 304462794 > /scratch/qchem/qchem1280/lic.dat
                  Welcome to Q-Chem
     A Quantum Leap Into The Future Of Chemistry


 Q-Chem 4.3, Q-Chem, Inc., Pleasanton, CA (2015)

 Y. Shao,  Z. Gan,  E. Epifanovsky,  A. T. B. Gilbert,  M. Wormit,  
 J. Kussmann,  A. W. Lange,  A. Behn,  J. Deng,  X. Feng,  D. Ghosh,  
 M. Goldey,  P. R. Horn,  L. D. Jacobson,  I. Kaliman,  R. Z. Khaliullin,  
 T. Kus,  A. Landau,  J. Liu,  E. I. Proynov,  Y. M. Rhee,  R. M. Richard,  
 M. A. Rohrdanz,  R. P. Steele,  E. J. Sundstrom,  H. L. Woodcock III,  
 P. M. Zimmerman,  D. Zuev,  B. Albrecht,  E. Alguire,  B. Austin,  
 S. A. Baeppler,  G. J. O. Beran,  Y. A. Bernard,  E. Berquist,  
 K. Brandhorst,  K. B. Bravaya,  S. T. Brown,  D. Casanova,  C.-M. Chang,  
 Y. Chen,  S. H. Chien,  K. D. Closser,  D. L. Crittenden,  M. Diedenhofen,  
 R. A. DiStasio Jr.,  H. Do,  A. D. Dutoi,  R. G. Edgar,  P.-T. Fang,  
 S. Fatehi,  Q. Feng,  L. Fusti-Molnar,  A. Ghysels,  
 A. Golubeva-Zadorozhnaya,  J. Gomes,  A. Gunina,  M. W. D. Hanson-Heine,  
 P. H. P. Harbach,  A. W. Hauser,  E. G. Hohenstein,  Z. C. Holden,  K. Hui,  
 T.-C. Jagau,  H. Ji,  B. Kaduk,  K. Khistyaev,  Jaehoon Kim,  Jihan Kim,  
 R. A. King,  P. Klunzinger,  D. Kosenkov,  T. Kowalczyk,  C. M. Krauter,  
 K. U. Lao,  A. Laurent,  K. V. Lawler,  S. Lehtola,  S. V. Levchenko,  
 C. Y. Lin,  Y.-S. Lin,  F. Liu,  E. Livshits,  R. C. Lochan,  A. Luenser,  
 P. Manohar,  S. F. Manzer,  S.-P. Mao,  N. Mardirossian,  A. V. Marenich,  
 L. A. Martinez-Martinez,  S. A. Maurer,  N. J. Mayhall,  K. Nanda,  
 C. M. Oana,  R. Olivares-Amaya,  D. P. O'Neill,  J. A. Parkhill,  
 T. M. Perrine,  R. Peverati,  P. A. Pieniazek,  F. Plasser,  A. Prociuk,  
 D. R. Rehn,  E. Rosta,  N. J. Russ,  N. Sergueev,  S. M. Sharada,  
 S. Sharma,  D. W. Small,  A. Sodt,  T. Stauch,  T. Stein,  D. Stuck,  
 Y.-C. Su,  A. J. W. Thom,  T. Tsuchimochi,  L. Vogt,  O. Vydrov,  T. Wang,  
 M. A. Watson,  J. Wenzel,  A. White,  C. F. Williams,  V. Vanovschi,  
 S. Yeganeh,  S. R. Yost,  Z.-Q. You,  I. Y. Zhang,  X. Zhang,  Y. Zhao,  
 B. R. Brooks,  G. K. L. Chan,  D. M. Chipman,  C. J. Cramer,  
 W. A. Goddard III,  M. S. Gordon,  W. J. Hehre,  A. Klamt,  
 H. F. Schaefer III,  M. W. Schmidt,  C. D. Sherrill,  D. G. Truhlar,  
 A. Warshel,  X. Xu,  A. Aspuru-Guzik,  R. Baer,  A. T. Bell,  N. A. Besley,  
 J.-D. Chai,  A. Dreuw,  B. D. Dunietz,  T. R. Furlani,  S. R. Gwaltney,  
 C.-P. Hsu,  Y. Jung,  J. Kong,  D. S. Lambrecht,  W. Liang,  C. Ochsenfeld,  
 V. A. Rassolov,  L. V. Slipchenko,  J. E. Subotnik,  T. Van Voorhis,  
 J. M. Herbert,  A. I. Krylov,  P. M. W. Gill,  M. Head-Gordon

 Contributors to earlier versions of Q-Chem not listed above: 
 R. D. Adamson,  J. Baker,  E. F. C. Byrd,  A. K. Chakraborty,  C.-L. Cheng,  
 H. Dachsel,  R. J. Doerksen,  G. Hawkins,  A. Heyden,  S. Hirata,  
 G. Kedziora,  F. J. Keil,  C. Kelley,  P. P. Korambath,  W. Kurlancheek,  
 A. M. Lee,  M. S. Lee,  D. Liotard,  I. Lotan,  P. E. Maslen,  N. Nair,  
 D. Neuhauser,  R. Olson,  B. Peters,  J. Ritchie,  N. E. Schultz,  
 N. Shenvi,  A. C. Simmonett,  K. S. Thanthiriwatte,  Q. Wu,  W. Zhang

 Please cite Q-Chem as follows:
 Y. Shao et al., Mol. Phys. 113, 184-215 (2015)
 DOI: 10.1080/00268976.2014.952696

 Q-Chem 4.3.0 for Intel X86 Linux

 Parts of Q-Chem use Armadillo 5.200.1 (Boston Tea Smuggler).
 http://arma.sourceforge.net/

 Q-Chem begins on Tue Mar 14 14:31:49 2017  

Host: 
0

     Scratch files written to /scratch/qchem/qchem1280//
 Nov1815 1189b_ 19540  19532 5443   
 Parallel job on  1  processors
Processing $rem in /mnt/software/qchem/config/preferences.
 MEM_TOTAL  2000 

Checking the input file for inconsistencies... 	...done.

--------------------------------------------------------------
User input:
--------------------------------------------------------------
$comment
XAS calculation for the 2b valence excited for water using cvs-adc(2)-x + 6-311+G* basis set
job 1 - determination of HF orbitals
$end

$molecule
0 1
6  -0.700367  2.57138  -0.046774
9  0.574312  2.309584  0.016708
9  -1.125147  3.289443  0.769084
9  -1.117632  1.115784  0.433809
9  -1.134206  2.546569  -1.185319
$end

$rem
jobtype      sp
sym_ignore true
exchange     hf
basis        6-31G*
unrestricted true
$end

--------------------------------------------------------------
 ----------------------------------------------------------------
             Standard Nuclear Orientation (Angstroms)
    I     Atom           X                Y                Z
 ----------------------------------------------------------------
    1      C      -0.7003670000     2.5713800000    -0.0467740000
    2      F       0.5743120000     2.3095840000     0.0167080000
    3      F      -1.1251470000     3.2894430000     0.7690840000
    4      F      -1.1176320000     1.1157840000     0.4338090000
    5      F      -1.1342060000     2.5465690000    -1.1853190000
 ----------------------------------------------------------------
 Nuclear Repulsion Energy =   208.7648737070 hartrees
 There are       21 alpha and       21 beta electrons
 Requested basis set is 6-31G(d)
 There are 20 shells and 75 basis functions

 Total QAlloc Memory Limit   2000 MB
 Mega-Array Size        61 MB
 MEM_STATIC part        62 MB

                       Distance Matrix (Angstroms)
             C (  1)   F (  2)   F (  3)   F (  4)
   F (  2)  1.302833
   F (  3)  1.166909  2.101036
   F (  4)  1.588657  2.112299  2.199377
   F (  5)  1.218654  2.102395  2.090846  2.160786
 
 tim1(1): 
  0.000000000000000E+000
 tim1(2): 
  0.000000000000000E+000
 A cutoff of  1.0D-08 yielded    199 shell pairs
 There are      2962 function pairs
 
 -------------------------------------------------------
 OpenMP Integral Computing Module                       
 Release: version 1.0, May 2013, Q-Chem Inc. Pittsburgh 
 -------------------------------------------------------
 Integral Job Info:
 Integral job number is                      11
 Integral operator is                         1
 short-range coefficients                     0
 long-range coefficients              100000000
 Omega coefficients                           0
 if combine SR and LR in K                    0
 Integral screening is                        0
 Integral computing path is                   2
 max size of driver memory is            800000
 size of driver memory is                593474
 size of scratch memory is              2260544
 max col of scratch BK array               1296
 max len of scratch array in speh3          155
 max len of scratch index in speh4           18
 max int batch size is                      520
 min int batch size is                       52
 fixed nKL is                                52
 max L of basis functions is                  2
 order of int derivative is                   0
 number of shells is                         20
 number of basis is                          75
 number of cartesian basis is                75
 number of contracted shell pairs           199
 number of primitive shell pairs            991
 maxK2 (contraction) of shell pair           36
 max number of K2 of shell pair               1
 max number of CS2 of shell pair             27
 max number of PS2 of shell pair            180
 mem total for path MDJ                   21832
 -------------------------------------------------------
 Smallest overlap matrix eigenvalue = 1.65E-03

 Scale SEOQF with 1.000000e+00/1.000000e-01/1.000000e+00

 Standard Electronic Orientation quadrupole field applied
 Nucleus-field energy     =     0.0000000114 hartrees
 Guess from superposition of atomic densities
 Warning:  Energy on first SCF cycle will be non-variational
 An unrestricted Hartree-Fock SCF calculation will be
 performed using Pulay DIIS extrapolation
 SCF converges when DIIS error is below 1.0E-05
 using 8 threads for integral computing 
 ---------------------------------------
  Cycle       Energy         DIIS Error
 ---------------------------------------
    1    -436.7347473119      9.50E-02
    2    -435.3801824886      1.82E-02
    3    -435.5083369533      1.10E-02
    4    -435.5616381644      1.07E-03
    5    -435.5624652393      3.88E-04
    6    -435.5625933242      1.02E-04
    7    -435.5626034841      4.29E-05
    8    -435.5626052865      7.15E-06 Convergence criterion met
 ---------------------------------------
 <S^2> = 0.0000
 SCF time:  CPU 5.37 s  wall 1.63 s
 SCF   energy in the final basis set = -435.5626052865
 Total energy in the final basis set = -435.5626052865
 
 --------------------------------------------------------------
 
                    Orbital Energies (a.u.)
 --------------------------------------------------------------
 
 Alpha MOs
 -- Occupied --
-26.452 -26.422 -26.376 -26.238 -11.622  -1.886  -1.783  -1.699
 -1.506  -1.038  -0.953  -0.932  -0.903  -0.790  -0.771  -0.765
 -0.727  -0.701  -0.583  -0.578  -0.571
 -- Virtual --
  0.260   0.387   0.463   0.524   0.644   0.687   0.731   0.775
  1.236   1.269   1.302   1.312   1.315   1.438   1.529   1.545
  1.570   1.575   1.606   1.641   1.707   1.714   1.779   1.872
  1.913   2.002   2.033   2.068   2.080   2.117   2.190   2.232
  2.279   2.289   2.311   2.355   2.369   2.455   2.506   2.543
  2.760   2.916   3.081   3.147   3.282   3.359   3.509   3.553
  3.589   4.386   4.719   4.948   5.383   6.378
 
 Beta MOs
 -- Occupied --
-26.452 -26.422 -26.376 -26.238 -11.622  -1.886  -1.783  -1.699
 -1.506  -1.038  -0.953  -0.932  -0.903  -0.790  -0.771  -0.765
 -0.727  -0.701  -0.583  -0.578  -0.571
 -- Virtual --
  0.260   0.387   0.463   0.524   0.644   0.687   0.731   0.775
  1.236   1.269   1.302   1.312   1.315   1.438   1.529   1.545
  1.570   1.575   1.606   1.641   1.707   1.714   1.779   1.872
  1.913   2.002   2.033   2.068   2.080   2.117   2.190   2.232
  2.279   2.289   2.311   2.355   2.369   2.455   2.506   2.543
  2.760   2.916   3.081   3.147   3.282   3.359   3.509   3.553
  3.589   4.386   4.719   4.948   5.383   6.378
 --------------------------------------------------------------
 
          Ground-State Mulliken Net Atomic Charges

     Atom                 Charge (a.u.)    Spin (a.u.)
  --------------------------------------------------------
      1 C                     1.219840       0.000000
      2 F                    -0.315552       0.000000
      3 F                    -0.144024       0.000000
      4 F                    -0.544581       0.000000
      5 F                    -0.215683       0.000000
  --------------------------------------------------------
  Sum of atomic charges =     0.000000
  Sum of spin   charges =     0.000000

 -----------------------------------------------------------------
                    Cartesian Multipole Moments
 -----------------------------------------------------------------
    Charge (ESU x 10^10)
                 0.0000
    Dipole Moment (Debye)
         X       0.0863      Y       2.9621      Z      -0.6720
       Tot       3.0386
    Quadrupole Moments (Debye-Ang)
        XX     -24.8804     XY      -2.7102     YY     -11.8689
        XZ       0.6450     YZ      -0.6685     ZZ     -24.0987
    Octopole Moments (Debye-Ang^2)
       XXX      50.7852    XXY     -55.2391    XYY       6.3042
       YYY    -128.3766    XXZ      -0.7345    XYZ       0.3541
       YYZ      -0.9481    XZZ      17.2614    YZZ     -56.1312
       ZZZ       0.2060
    Hexadecapole Moments (Debye-Ang^3)
      XXXX    -143.7099   XXXY     114.4960   XXYY    -163.7893
      XYYY      85.9220   YYYY    -747.1914   XXXZ       0.7840
      XXYZ       0.2697   XYYZ      -0.6557   YYYZ      -1.7412
      XXZZ     -36.8358   XYZZ      39.8735   YYZZ    -157.4071
      XZZZ      -0.2801   YZZZ       2.9914   ZZZZ     -72.5006
 -----------------------------------------------------------------
Archival summary:
1\1\tp-linux1\SP\HF\6-31G*\41\thomas\TueMar1414:31:512017TueMar1414:31:512017\0\\#,HF,6-31G*,\\0,1\C\F,1,1.16691\F,1,1.21865,2,122.421\F,1,1.30283,2,116.471,3,-146.309,0\F,1,1.58866,2,104.874,3,112.187,0\\HF=-435.562605\\@

 Total job time:  2.01s(wall), 7.42s(cpu) 
 Tue Mar 14 14:31:51 2017

        *************************************************************
        *                                                           *
        *  Thank you very much for using Q-Chem.  Have a nice day.  *
        *                                                           *
        *************************************************************


0 sent ACK to 0 
now end server 0 ... 
cleanup process ... done

Running Job 2 of 2 ddtraj5t7.inp
qchem ddtraj5t7.inp_1280.1 /scratch/qchem/qchem1280/ 1
/mnt/software/qchem/bin/mpi/mpirun_qchem -machinefile /mnt/software/qchem/bin/mpi/machines -np 1 /mnt/software/qchem/exe/qcprog.exe ddtraj5t7.inp_1280.1 /scratch/qchem/qchem1280/

Process 0 of 1 is on tp-linux1 - thread support 0
initial socket setup ...start
initial socket setup ...done 
now start server 0 ... 

cmd = ssh tp-linux1 /mnt/software/qchem/bin/get_hostid 1992355591 > /scratch/qchem/qchem1280/lic.dat
                  Welcome to Q-Chem
     A Quantum Leap Into The Future Of Chemistry


 Q-Chem 4.3, Q-Chem, Inc., Pleasanton, CA (2015)

 Y. Shao,  Z. Gan,  E. Epifanovsky,  A. T. B. Gilbert,  M. Wormit,  
 J. Kussmann,  A. W. Lange,  A. Behn,  J. Deng,  X. Feng,  D. Ghosh,  
 M. Goldey,  P. R. Horn,  L. D. Jacobson,  I. Kaliman,  R. Z. Khaliullin,  
 T. Kus,  A. Landau,  J. Liu,  E. I. Proynov,  Y. M. Rhee,  R. M. Richard,  
 M. A. Rohrdanz,  R. P. Steele,  E. J. Sundstrom,  H. L. Woodcock III,  
 P. M. Zimmerman,  D. Zuev,  B. Albrecht,  E. Alguire,  B. Austin,  
 S. A. Baeppler,  G. J. O. Beran,  Y. A. Bernard,  E. Berquist,  
 K. Brandhorst,  K. B. Bravaya,  S. T. Brown,  D. Casanova,  C.-M. Chang,  
 Y. Chen,  S. H. Chien,  K. D. Closser,  D. L. Crittenden,  M. Diedenhofen,  
 R. A. DiStasio Jr.,  H. Do,  A. D. Dutoi,  R. G. Edgar,  P.-T. Fang,  
 S. Fatehi,  Q. Feng,  L. Fusti-Molnar,  A. Ghysels,  
 A. Golubeva-Zadorozhnaya,  J. Gomes,  A. Gunina,  M. W. D. Hanson-Heine,  
 P. H. P. Harbach,  A. W. Hauser,  E. G. Hohenstein,  Z. C. Holden,  K. Hui,  
 T.-C. Jagau,  H. Ji,  B. Kaduk,  K. Khistyaev,  Jaehoon Kim,  Jihan Kim,  
 R. A. King,  P. Klunzinger,  D. Kosenkov,  T. Kowalczyk,  C. M. Krauter,  
 K. U. Lao,  A. Laurent,  K. V. Lawler,  S. Lehtola,  S. V. Levchenko,  
 C. Y. Lin,  Y.-S. Lin,  F. Liu,  E. Livshits,  R. C. Lochan,  A. Luenser,  
 P. Manohar,  S. F. Manzer,  S.-P. Mao,  N. Mardirossian,  A. V. Marenich,  
 L. A. Martinez-Martinez,  S. A. Maurer,  N. J. Mayhall,  K. Nanda,  
 C. M. Oana,  R. Olivares-Amaya,  D. P. O'Neill,  J. A. Parkhill,  
 T. M. Perrine,  R. Peverati,  P. A. Pieniazek,  F. Plasser,  A. Prociuk,  
 D. R. Rehn,  E. Rosta,  N. J. Russ,  N. Sergueev,  S. M. Sharada,  
 S. Sharma,  D. W. Small,  A. Sodt,  T. Stauch,  T. Stein,  D. Stuck,  
 Y.-C. Su,  A. J. W. Thom,  T. Tsuchimochi,  L. Vogt,  O. Vydrov,  T. Wang,  
 M. A. Watson,  J. Wenzel,  A. White,  C. F. Williams,  V. Vanovschi,  
 S. Yeganeh,  S. R. Yost,  Z.-Q. You,  I. Y. Zhang,  X. Zhang,  Y. Zhao,  
 B. R. Brooks,  G. K. L. Chan,  D. M. Chipman,  C. J. Cramer,  
 W. A. Goddard III,  M. S. Gordon,  W. J. Hehre,  A. Klamt,  
 H. F. Schaefer III,  M. W. Schmidt,  C. D. Sherrill,  D. G. Truhlar,  
 A. Warshel,  X. Xu,  A. Aspuru-Guzik,  R. Baer,  A. T. Bell,  N. A. Besley,  
 J.-D. Chai,  A. Dreuw,  B. D. Dunietz,  T. R. Furlani,  S. R. Gwaltney,  
 C.-P. Hsu,  Y. Jung,  J. Kong,  D. S. Lambrecht,  W. Liang,  C. Ochsenfeld,  
 V. A. Rassolov,  L. V. Slipchenko,  J. E. Subotnik,  T. Van Voorhis,  
 J. M. Herbert,  A. I. Krylov,  P. M. W. Gill,  M. Head-Gordon

 Contributors to earlier versions of Q-Chem not listed above: 
 R. D. Adamson,  J. Baker,  E. F. C. Byrd,  A. K. Chakraborty,  C.-L. Cheng,  
 H. Dachsel,  R. J. Doerksen,  G. Hawkins,  A. Heyden,  S. Hirata,  
 G. Kedziora,  F. J. Keil,  C. Kelley,  P. P. Korambath,  W. Kurlancheek,  
 A. M. Lee,  M. S. Lee,  D. Liotard,  I. Lotan,  P. E. Maslen,  N. Nair,  
 D. Neuhauser,  R. Olson,  B. Peters,  J. Ritchie,  N. E. Schultz,  
 N. Shenvi,  A. C. Simmonett,  K. S. Thanthiriwatte,  Q. Wu,  W. Zhang

 Please cite Q-Chem as follows:
 Y. Shao et al., Mol. Phys. 113, 184-215 (2015)
 DOI: 10.1080/00268976.2014.952696

 Q-Chem 4.3.0 for Intel X86 Linux

 Parts of Q-Chem use Armadillo 5.200.1 (Boston Tea Smuggler).
 http://arma.sourceforge.net/

 Q-Chem begins on Tue Mar 14 14:31:53 2017  

Host: 
0

     Scratch files written to /scratch/qchem/qchem1280//
 Nov1815 1189b_ 19540  19532 5443   
 Parallel job on  1  processors
Processing $rem in /mnt/software/qchem/config/preferences.
 MEM_TOTAL  2000 

Checking the input file for inconsistencies... 	...done.

--------------------------------------------------------------
User input:
--------------------------------------------------------------

$comment
job3 - cvs-adc(2) calculation
$end

$molecule
read
$end

$rem
mem_total 3000
mem_static 1500
sym_ignore true
scf_guess read
method cvs-adc(2)
basis 6-31G*
ee_singlets 20
cc_rest_occ 1                  !only excitations from the lowest N orbitals
unrestricted  true
max_scf_cycles 200
$end
--------------------------------------------------------------
 ----------------------------------------------------------------
             Standard Nuclear Orientation (Angstroms)
    I     Atom           X                Y                Z
 ----------------------------------------------------------------
    1      C      -0.7003670000     2.5713800000    -0.0467740000
    2      F       0.5743120000     2.3095840000     0.0167080000
    3      F      -1.1251470000     3.2894430000     0.7690840000
    4      F      -1.1176320000     1.1157840000     0.4338090000
    5      F      -1.1342060000     2.5465690000    -1.1853190000
 ----------------------------------------------------------------
 Nuclear Repulsion Energy =   208.7648737070 hartrees
 There are       21 alpha and       21 beta electrons
 Requested basis set is 6-31G(d)
 There are 20 shells and 75 basis functions

 Total QAlloc Memory Limit   3000 MB
 Mega-Array Size      1467 MB
 MEM_STATIC part      1500 MB

                       Distance Matrix (Angstroms)
             C (  1)   F (  2)   F (  3)   F (  4)
   F (  2)  1.302833
   F (  3)  1.166909  2.101036
   F (  4)  1.588657  2.112299  2.199377
   F (  5)  1.218654  2.102395  2.090846  2.160786
 
 tim1(1): 
  0.000000000000000E+000
 tim1(2): 
  0.000000000000000E+000
 A cutoff of  1.0D-11 yielded    204 shell pairs
 There are      2979 function pairs
 
 -------------------------------------------------------
 OpenMP Integral Computing Module                       
 Release: version 1.0, May 2013, Q-Chem Inc. Pittsburgh 
 -------------------------------------------------------
 Integral Job Info:
 Integral job number is                      11
 Integral operator is                         1
 short-range coefficients                     0
 long-range coefficients              100000000
 Omega coefficients                           0
 if combine SR and LR in K                    0
 Integral screening is                        0
 Integral computing path is                   2
 max size of driver memory is            800000
 size of driver memory is                593474
 size of scratch memory is              2260544
 max col of scratch BK array               1296
 max len of scratch array in speh3          155
 max len of scratch index in speh4           18
 max int batch size is                      520
 min int batch size is                       52
 fixed nKL is                                52
 max L of basis functions is                  2
 order of int derivative is                   0
 number of shells is                         20
 number of basis is                          75
 number of cartesian basis is                75
 number of contracted shell pairs           204
 number of primitive shell pairs           1071
 maxK2 (contraction) of shell pair           36
 max number of K2 of shell pair               1
 max number of CS2 of shell pair             37
 max number of PS2 of shell pair            222
 mem total for path MDJ                   21832
 -------------------------------------------------------
 Smallest overlap matrix eigenvalue = 1.65E-03

 Scale SEOQF with 1.000000e+00/1.000000e-01/1.000000e+00

 Standard Electronic Orientation quadrupole field applied
 Nucleus-field energy     =     0.0000000114 hartrees
 Guess MOs from SCF MO coefficient file
 Reading MOs from coefficient file
 Reading MOs from coefficient file
 An unrestricted Hartree-Fock SCF calculation will be
 performed using Pulay DIIS extrapolation
 SCF converges when DIIS error is below 1.0E-08
 using 8 threads for integral computing 
 ---------------------------------------
  Cycle       Energy         DIIS Error
 ---------------------------------------
    1    -435.5626054017      2.14E-06
    2    -435.5626054056      9.48E-07
    3    -435.5626054066      5.54E-07
    4    -435.5626054069      5.90E-08
    5    -435.5626054070      2.63E-08
    6    -435.5626054070      8.13E-09 Convergence criterion met
 ---------------------------------------
 <S^2> = 0.0000
 SCF time:  CPU 6.07 s  wall 1.32 s
 SCF   energy in the final basis set = -435.5626054070
 Total energy in the final basis set = -435.5626054070
================================================================================
|                                                                              |
|                                 A D C  M A N                                 |
|                                                                              |
 ------------------------------------------------------------------------------ 
|                                                                              |
| Components:                                                                  |
|                                                                              |
| - libvmm - 1.2-release                                                       |
|   Authors:                                                                   |
|   Evgeny Epifanovsky, Ilya Kaliman                                           |
|                                                                              |
| - libtensor - 2.4-trunk                                                      |
|   Authors:                                                                   |
|   Evgeny Epifanovsky, Michael Wormit, Dmitry Zuev, Sam Manzer                |
|                                                                              |
| - libwfa - 1.1-beta                                                          |
|   Authors:                                                                   |
|   Felix Plasser, Stefanie Baeppler, Benjamin Thomitzni, Michael Wormit       |
|                                                                              |
| - libadc - 1.0-beta                                                          |
|   Authors:                                                                   |
|   Michael Wormit, Philipp H. P. Harbach, Caroline Krauter, Dirk Rehn,        |
|   Matthias Schneider, Jan Wenzel                                             |
|                                                                              |
| - adcman - 2.4-beta                                                          |
|   Authors:                                                                   |
|   Michael Wormit, Philipp H. P. Harbach, Caroline Krauter, Dirk Rehn,        |
|   Jan Wenzel, Andreas Dreuw                                                  |
|                                                                              |
| Authors of earlier versions of ADCMAN:                                       |
| Andreas Dreuw, Jan Hendrik Starcke, Dirk Rehn, Michael Wormit                |
|                                                                              |
================================================================================

 
 Alpha MOs, Unrestricted
 -- Occupied --                  
-26.452 -26.422 -26.376 -26.238 -11.622  -1.886  -1.783  -1.699
  1 A     2 A     3 A     4 A     5 A     6 A     7 A     8 A                  
 -1.506  -1.038  -0.953  -0.932  -0.903  -0.790  -0.771  -0.765
  9 A    10 A    11 A    12 A    13 A    14 A    15 A    16 A                  
 -0.727  -0.701  -0.583  -0.578  -0.571
 17 A    18 A    19 A    20 A    21 A                                          
 -- Virtual --                   
  0.260   0.387   0.463   0.524   0.644   0.687   0.731   0.775
 22 A    23 A    24 A    25 A    26 A    27 A    28 A    29 A                  
  1.236   1.269   1.302   1.312   1.315   1.438   1.529   1.545
 30 A    31 A    32 A    33 A    34 A    35 A    36 A    37 A                  
  1.570   1.575   1.607   1.641   1.707   1.714   1.779   1.872
 38 A    39 A    40 A    41 A    42 A    43 A    44 A    45 A                  
  1.913   2.002   2.033   2.068   2.080   2.117   2.190   2.232
 46 A    47 A    48 A    49 A    50 A    51 A    52 A    53 A                  
  2.279   2.289   2.311   2.355   2.369   2.455   2.506   2.543
 54 A    55 A    56 A    57 A    58 A    59 A    60 A    61 A                  
  2.760   2.916   3.081   3.147   3.282   3.359   3.509   3.553
 62 A    63 A    64 A    65 A    66 A    67 A    68 A    69 A                  
  3.589   4.386   4.719   4.948   5.383   6.378
 70 A    71 A    72 A    73 A    74 A    75 A                                  
 
 Beta MOs, Unrestricted
 -- Occupied --                  
-26.452 -26.422 -26.376 -26.238 -11.622  -1.886  -1.783  -1.699
  1 A     2 A     3 A     4 A     5 A     6 A     7 A     8 A                  
 -1.506  -1.038  -0.953  -0.932  -0.903  -0.790  -0.771  -0.765
  9 A    10 A    11 A    12 A    13 A    14 A    15 A    16 A                  
 -0.727  -0.701  -0.583  -0.578  -0.571
 17 A    18 A    19 A    20 A    21 A                                          
 -- Virtual --                   
  0.260   0.387   0.463   0.524   0.644   0.687   0.731   0.775
 22 A    23 A    24 A    25 A    26 A    27 A    28 A    29 A                  
  1.236   1.269   1.302   1.312   1.315   1.438   1.529   1.545
 30 A    31 A    32 A    33 A    34 A    35 A    36 A    37 A                  
  1.570   1.575   1.607   1.641   1.707   1.714   1.779   1.872
 38 A    39 A    40 A    41 A    42 A    43 A    44 A    45 A                  
  1.913   2.002   2.033   2.068   2.080   2.117   2.190   2.232
 46 A    47 A    48 A    49 A    50 A    51 A    52 A    53 A                  
  2.279   2.289   2.311   2.355   2.369   2.455   2.506   2.543
 54 A    55 A    56 A    57 A    58 A    59 A    60 A    61 A                  
  2.760   2.916   3.081   3.147   3.282   3.359   3.509   3.553
 62 A    63 A    64 A    65 A    66 A    67 A    68 A    69 A                  
  3.589   4.386   4.719   4.948   5.383   6.378
 70 A    71 A    72 A    73 A    74 A    75 A                                  
 

--------------------------------------------------------------------------------
                                   HF Summary                                   
--------------------------------------------------------------------------------
  Energy:                                                 -435.5626054070 a.u.
  Dip. moment [a.u.]:                  [ -55.641471,  185.503193,    0.317066]
  Total dipole [Debye]:                                             492.256453
  <r^2> [a.u.]:                        [ 161.786632,  918.137287,   88.186855]
  Total <r^2> [a.u.]:                                              1168.110774
--------------------------------------------------------------------------------

--------------------------------------------------------------------------------
                                 MP(2) Summary                                  
--------------------------------------------------------------------------------
  Energy contribution:                                      -0.8139400933 a.u.
  Total energy:                                           -436.3765455002 a.u.
  Dip. moment [a.u.]:                  [ -55.632457,  185.638392,    0.284274]
  Total dipole [Debye]:                                             492.578911
  <r^2> [a.u.]:                        [ 161.711921,  919.178008,   88.130034]
  Total <r^2> [a.u.]:                                              1169.019963
--------------------------------------------------------------------------------
  Starting Davidson ... 
--------------------------------------------------------------------------------
   It NVec Conv  Avg. Norm  Max. Norm  Conv. states           Remark
--------------------------------------------------------------------------------
        20    0  3.662e-01  1.707e+00 26.2741 n n n n n n n n Guess.
    1   40    0  8.314e-02  1.015e+00 25.5776 n n n n n n n n 
    2   60    0  1.874e-02  2.405e-01 25.5704 n n n n n n n n 
    3   80    0  5.385e-03  6.910e-02 25.5699 n n n n n n n n 
    4  100    0  6.459e-03  9.543e-02 25.5699 n n n n n n n n 
    5   40    0  2.266e-03  3.214e-02 25.5699 n n n n n n n n Subspace collapsed.
    6   60    0  3.249e-03  5.065e-02 25.5699 n n n n n n n n 
    7   80    0  3.380e-03  5.184e-02 25.5699 n n n n n n n n 
    8  100    0  2.300e-03  3.805e-02 25.5699 n n n n n n n n 
    9   40    0  1.555e-03  2.706e-02 25.5699 n n n n n n n n Subspace collapsed.
   10   60    0  1.099e-03  1.680e-02 25.5699 n n n n n n n n 
   11   80    3  7.182e-04  1.230e-02 25.5699 y y n y n n n n 
   12  100    5  6.275e-04  1.105e-02 25.5699 y y y y n n y n 
   13   40   11  3.617e-04  6.330e-03 25.5699 y y y y y y y y Subspace collapsed.
   14   60   14  4.102e-04  7.291e-03 25.5699 y y y y y y y y 
   15   80   16  3.822e-04  6.821e-03 25.5699 y y y y y y y y 
   16  100   16  3.079e-04  5.507e-03 25.5699 y y y y y y y y 
   17   40   16  2.087e-04  3.832e-03 25.5699 y y y y y y y y Subspace collapsed.
   18   60   16  1.561e-04  2.864e-03 25.5699 y y y y y y y y 
   19   80   16  1.351e-04  2.500e-03 25.5699 y y y y y y y y 
   20  100   16  1.425e-04  2.648e-03 25.5699 y y y y y y y y 
   21   40   16  7.773e-05  1.430e-03 25.5699 y y y y y y y y Subspace collapsed.
   22   60   16  9.148e-05  1.681e-03 25.5699 y y y y y y y y 
   23   80   16  9.724e-05  1.800e-03 25.5699 y y y y y y y y 
   24   96   16  9.944e-05  1.809e-03 25.5699 y y y y y y y y 
   25  100   16  8.745e-05  1.627e-03 25.5699 y y y y y y y y 
   26   22   16  8.347e-05  1.547e-03 25.5699 y y y y y y y y Subspace collapsed.
   27   35   16  4.714e-05  8.537e-04 25.5699 y y y y y y y y 
   28   47   16  3.721e-05  6.583e-04 25.5699 y y y y y y y y 
   29   59   16  3.138e-05  5.537e-04 25.5699 y y y y y y y y 
   30   62   16  3.429e-05  6.213e-04 25.5699 y y y y y y y y 
   31   69   16  2.809e-05  5.150e-04 25.5699 y y y y y y y y 
   32   75   16  2.919e-05  5.570e-04 25.5699 y y y y y y y y 
   33   81   16  2.929e-05  5.656e-04 25.5699 y y y y y y y y 
   34   86   16  2.025e-05  3.849e-04 25.5699 y y y y y y y y 
   35   90   16  1.534e-05  2.674e-04 25.5699 y y y y y y y y 
   36   94   16  7.655e-03  1.531e-01 25.5699 y y y y y y y y 
   37   98   16  3.619e-03  7.239e-02 25.5699 y y y y y y y y 
   38  100   17  2.686e-03  5.372e-02 25.5699 y y y y y y y y 
   39   24   17  1.706e-03  3.411e-02 25.5699 y y y y y y y y Subspace collapsed.
   40   28   17  1.733e-03  3.466e-02 25.5699 y y y y y y y y 
   41   32   17  1.624e-03  3.248e-02 25.5699 y y y y y y y y 
   42   36   17  1.421e-03  2.843e-02 25.5699 y y y y y y y y 
   43   40   17  1.367e-03  2.734e-02 25.5699 y y y y y y y y 
   44   44   17  1.193e-03  2.385e-02 25.5699 y y y y y y y y 
   45   48   18  9.228e-04  1.846e-02 25.5699 y y y y y y y y 
   46   52   18  5.749e-04  1.150e-02 25.5699 y y y y y y y y 
   47   52   18  5.749e-04  1.150e-02 25.5699 y y y y y y y y 
   48   52   18  5.749e-04  1.150e-02 25.5699 y y y y y y y y 
   49   72   18  3.805e-04  7.610e-03 25.5699 y y y y y y y y 
   50   72   18  3.805e-04  7.610e-03 25.5699 y y y y y y y y 
   51   78   18  3.642e-04  7.284e-03 25.5699 y y y y y y y y 
   52   79   18  3.606e-04  7.212e-03 25.5699 y y y y y y y y 
   53   79   18  3.606e-04  7.212e-03 25.5699 y y y y y y y y 
   54   81   18  3.614e-04  7.228e-03 25.5699 y y y y y y y y 
   55   82   18  3.633e-04  7.267e-03 25.5699 y y y y y y y y 
   56   84   18  3.604e-04  7.209e-03 25.5699 y y y y y y y y 
   57   87   18  3.520e-04  7.041e-03 25.5699 y y y y y y y y 
   58   90   18  3.470e-04  6.941e-03 25.5699 y y y y y y y y 
   59   94    8  3.379e-04  6.758e-03 25.5699 y n n n n n n y 
--------------------------------------------------------------------------------
  Davidson Summary: 
 ------------------------------------------------------------
  State  0: excitation energy =  25.5699 a.u.   (converged)
  State  1: excitation energy =  25.5767 a.u.   (not converged)
  State  2: excitation energy =  25.6786 a.u.   (not converged)
  State  3: excitation energy =  25.7100 a.u.   (not converged)
  State  4: excitation energy =  25.7717 a.u.   (not converged)
  State  5: excitation energy =  25.7791 a.u.   (not converged)
  State  6: excitation energy =  25.8642 a.u.   (not converged)
  State  7: excitation energy =  25.8772 a.u.   (converged)
  State  8: excitation energy =  25.9489 a.u.   (not converged)
  State  9: excitation energy =  25.9687 a.u.   (converged)
  State 10: excitation energy =  25.9921 a.u.   (not converged)
  State 11: excitation energy =  25.9963 a.u.   (converged)
  State 12: excitation energy =  26.0299 a.u.   (not converged)
  State 13: excitation energy =  26.0364 a.u.   (not converged)
  State 14: excitation energy =  26.1082 a.u.   (converged)
  State 15: excitation energy =  26.1100 a.u.   (converged)
  State 16: excitation energy =  26.4556 a.u.   (converged)
  State 17: excitation energy =  26.4926 a.u.   (converged)
  State 18: excitation energy =  26.5368 a.u.   (not converged)
  State 19: excitation energy =  26.5658 a.u.   (not converged)
 ------------------------------------------------------------


--------------------------------------------------------------------------------
                             Excited State Summary
--------------------------------------------------------------------------------

  Excited state  1 (A)                                             [converged]
  ----------------------------------------------------------------------------
  Term symbol:  2 (-) A                                     R^2 =  2.00921e-08

  Total energy:                                           -410.8066496153 a.u.
  Excitation energy:                                             695.792253 eV

  Osc. strength:                                                      0.000000
  Trans. dip. moment [a.u.]:           [   0.000000,    0.000000,   -0.000000]
  <i|r^2|0> [a.u.]:                    [  -0.000000,    0.000000,   -0.000000]

  V1^2 = 0.8270, V2^2 = 0.1730

  Important amplitudes:
     core i     occ j      vir a      vir b          v   
    ------------------------------------------------------
     1 (A) B              22 (A) B                 0.6360
     1 (A) A              22 (A) A                -0.6360
    ------------------------------------------------------
  ----------------------------------------------------------------------------


  Excited state  2 (A)                                         [not converged]
  ----------------------------------------------------------------------------
  Term symbol:  3 (-) A                                     R^2 =  1.52166e-06

  Total energy:                                           -410.7998010299 a.u.
  Excitation energy:                                             695.978613 eV


  V1^2 = 0.8218, V2^2 = 0.1782

  Important amplitudes:
     core i     occ j      vir a      vir b          v   
    ------------------------------------------------------
     1 (A) B              22 (A) B                 0.6358
     1 (A) A              22 (A) A                 0.6358
    ------------------------------------------------------
  ----------------------------------------------------------------------------


  Excited state  3 (A)                                         [not converged]
  ----------------------------------------------------------------------------
  Term symbol:  4 (-) A                                     R^2 =  9.76912e-06

  Total energy:                                           -410.6979646541 a.u.
  Excitation energy:                                             698.749721 eV


  V1^2 = 0.8458, V2^2 = 0.1542

  Important amplitudes:
     core i     occ j      vir a      vir b          v   
    ------------------------------------------------------
     1 (A) B              23 (A) B                -0.5977
     1 (A) A              23 (A) A                 0.5977
    ------------------------------------------------------
  ----------------------------------------------------------------------------


  Excited state  4 (A)                                         [not converged]
  ----------------------------------------------------------------------------
  Term symbol:  5 (-) A                                     R^2 =  4.85451e-06

  Total energy:                                           -410.6665426046 a.u.
  Excitation energy:                                             699.604759 eV


  V1^2 = 0.8321, V2^2 = 0.1679

  Important amplitudes:
     core i     occ j      vir a      vir b          v   
    ------------------------------------------------------
     1 (A) A              23 (A) A                 0.6210
     1 (A) B              23 (A) B                 0.6210
    ------------------------------------------------------
  ----------------------------------------------------------------------------


  Excited state  5 (A)                                         [not converged]
  ----------------------------------------------------------------------------
  Term symbol:  6 (-) A                                     R^2 =  2.67571e-06

  Total energy:                                           -410.6048763507 a.u.
  Excitation energy:                                             701.282783 eV


  V1^2 = 0.8264, V2^2 = 0.1736

  Important amplitudes:
     core i     occ j      vir a      vir b          v   
    ------------------------------------------------------
     1 (A) B              24 (A) B                 0.6206
     1 (A) A              24 (A) A                -0.6206
    ------------------------------------------------------
  ----------------------------------------------------------------------------


  Excited state  6 (A)                                         [not converged]
  ----------------------------------------------------------------------------
  Term symbol:  7 (-) A                                     R^2 =  1.12525e-05

  Total energy:                                           -410.5974426223 a.u.
  Excitation energy:                                             701.485065 eV


  V1^2 = 0.8224, V2^2 = 0.1776

  Important amplitudes:
     core i     occ j      vir a      vir b          v   
    ------------------------------------------------------
     1 (A) A              24 (A) A                 0.6208
     1 (A) B              24 (A) B                 0.6208
    ------------------------------------------------------
  ----------------------------------------------------------------------------


  Excited state  7 (A)                                         [not converged]
  ----------------------------------------------------------------------------
  Term symbol:  8 (-) A                                     R^2 =  1.24637e-06

  Total energy:                                           -410.5123309929 a.u.
  Excitation energy:                                             703.801070 eV


  V1^2 = 0.8129, V2^2 = 0.1871

  Important amplitudes:
     core i     occ j      vir a      vir b          v   
    ------------------------------------------------------
     1 (A) B              25 (A) B                -0.5683
     1 (A) A              25 (A) A                 0.5683
    ------------------------------------------------------
  ----------------------------------------------------------------------------


  Excited state  8 (A)                                             [converged]
  ----------------------------------------------------------------------------
  Term symbol:  9 (-) A                                     R^2 =  2.74309e-07

  Total energy:                                           -410.4993423274 a.u.
  Excitation energy:                                             704.154510 eV

  Osc. strength:                                                      0.005971
  Trans. dip. moment [a.u.]:           [  -0.011438,    0.014645,    0.000900]
  <i|r^2|0> [a.u.]:                    [   0.045475,    0.179052,   -0.000814]

  V1^2 = 0.8126, V2^2 = 0.1874

  Important amplitudes:
     core i     occ j      vir a      vir b          v   
    ------------------------------------------------------
     1 (A) A              25 (A) A                 0.5976
     1 (A) B              25 (A) B                 0.5976
    ------------------------------------------------------
  ----------------------------------------------------------------------------


  Excited state  9 (A)                                         [not converged]
  ----------------------------------------------------------------------------
  Term symbol:  10 (-) A                                    R^2 =  1.31065e-06

  Total energy:                                           -410.4276369345 a.u.
  Excitation energy:                                             706.105713 eV


  V1^2 = 0.8483, V2^2 = 0.1517

  Important amplitudes:
     core i     occ j      vir a      vir b          v   
    ------------------------------------------------------
     1 (A) A              29 (A) A                -0.4232
     1 (A) B              29 (A) B                 0.4232
    ------------------------------------------------------
  ----------------------------------------------------------------------------


  Excited state 10 (A)                                             [converged]
  ----------------------------------------------------------------------------
  Term symbol:  11 (-) A                                    R^2 =  8.27561e-07

  Total energy:                                           -410.4078545988 a.u.
  Excitation energy:                                             706.644017 eV

  Osc. strength:                                                      0.024025
  Trans. dip. moment [a.u.]:           [  -0.007370,    0.028723,    0.022548]
  <i|r^2|0> [a.u.]:                    [   0.029923,    0.356093,    0.065209]

  V1^2 = 0.8386, V2^2 = 0.1614

  Important amplitudes:
     core i     occ j      vir a      vir b          v   
    ------------------------------------------------------
     1 (A) B              26 (A) B                -0.3963
     1 (A) A              26 (A) A                -0.3963
    ------------------------------------------------------
  ----------------------------------------------------------------------------


  Excited state 11 (A)                                         [not converged]
  ----------------------------------------------------------------------------
  Term symbol:  12 (-) A                                    R^2 =  2.70236e-06

  Total energy:                                           -410.3844293891 a.u.
  Excitation energy:                                             707.281450 eV


  V1^2 = 0.8158, V2^2 = 0.1842

  Important amplitudes:
     core i     occ j      vir a      vir b          v   
    ------------------------------------------------------
     1 (A) B              26 (A) B                 0.5343
     1 (A) A              26 (A) A                -0.5343
    ------------------------------------------------------
  ----------------------------------------------------------------------------


  Excited state 12 (A)                                             [converged]
  ----------------------------------------------------------------------------
  Term symbol:  13 (-) A                                    R^2 =  5.16763e-07

  Total energy:                                           -410.3802215811 a.u.
  Excitation energy:                                             707.395950 eV

  Osc. strength:                                                      0.007273
  Trans. dip. moment [a.u.]:           [  -0.017894,    0.006654,    0.007430]
  <i|r^2|0> [a.u.]:                    [   0.075556,    0.083087,    0.022435]

  V1^2 = 0.8170, V2^2 = 0.1830

  Important amplitudes:
     core i     occ j      vir a      vir b          v   
    ------------------------------------------------------
     1 (A) A              26 (A) A                 0.4597
     1 (A) B              26 (A) B                 0.4597
    ------------------------------------------------------
  ----------------------------------------------------------------------------


  Excited state 13 (A)                                         [not converged]
  ----------------------------------------------------------------------------
  Term symbol:  14 (-) A                                    R^2 =  2.51846e-06

  Total energy:                                           -410.3466045185 a.u.
  Excitation energy:                                             708.310717 eV


  V1^2 = 0.8173, V2^2 = 0.1827

  Important amplitudes:
     core i     occ j      vir a      vir b          v   
    ------------------------------------------------------
     1 (A) A              27 (A) A                -0.4679
     1 (A) B              27 (A) B                 0.4679
    ------------------------------------------------------
  ----------------------------------------------------------------------------


  Excited state 14 (A)                                         [not converged]
  ----------------------------------------------------------------------------
  Term symbol:  15 (-) A                                    R^2 =  2.38383e-06

  Total energy:                                           -410.3401363410 a.u.
  Excitation energy:                                             708.486725 eV


  V1^2 = 0.8212, V2^2 = 0.1788

  Important amplitudes:
     core i     occ j      vir a      vir b          v   
    ------------------------------------------------------
     1 (A) B              29 (A) B                -0.4552
     1 (A) A              29 (A) A                -0.4552
    ------------------------------------------------------
  ----------------------------------------------------------------------------


  Excited state 15 (A)                                             [converged]
  ----------------------------------------------------------------------------
  Term symbol:  16 (-) A                                    R^2 =  3.51929e-07

  Total energy:                                           -410.2683757909 a.u.
  Excitation energy:                                             710.439429 eV

  Osc. strength:                                                      0.000000
  Trans. dip. moment [a.u.]:           [  -0.000000,   -0.000000,    0.000000]
  <i|r^2|0> [a.u.]:                    [   0.000000,   -0.000000,    0.000000]

  V1^2 = 0.7974, V2^2 = 0.2026

  Important amplitudes:
     core i     occ j      vir a      vir b          v   
    ------------------------------------------------------
     1 (A) B              28 (A) B                 0.5929
     1 (A) A              28 (A) A                -0.5929
    ------------------------------------------------------
  ----------------------------------------------------------------------------


  Excited state 16 (A)                                             [converged]
  ----------------------------------------------------------------------------
  Term symbol:  17 (-) A                                    R^2 =  2.74308e-07

  Total energy:                                           -410.2665491921 a.u.
  Excitation energy:                                             710.489133 eV

  Osc. strength:                                                      0.002526
  Trans. dip. moment [a.u.]:           [   0.001221,    0.009944,   -0.006691]
  <i|r^2|0> [a.u.]:                    [  -0.005031,    0.123939,   -0.019012]

  V1^2 = 0.7967, V2^2 = 0.2033

  Important amplitudes:
     core i     occ j      vir a      vir b          v   
    ------------------------------------------------------
     1 (A) B              28 (A) B                 0.5925
     1 (A) A              28 (A) A                 0.5925
    ------------------------------------------------------
  ----------------------------------------------------------------------------


  Excited state 17 (A)                                             [converged]
  ----------------------------------------------------------------------------
  Term symbol:  18 (-) A                                    R^2 =  6.17941e-07

  Total energy:                                           -409.9209117099 a.u.
  Excitation energy:                                             719.894407 eV

  Osc. strength:                                                      0.000000
  Trans. dip. moment [a.u.]:           [   0.000000,    0.000000,    0.000000]
  <i|r^2|0> [a.u.]:                    [  -0.000000,    0.000000,    0.000000]

  V1^2 = 0.8741, V2^2 = 0.1259

  Important amplitudes:
     core i     occ j      vir a      vir b          v   
    ------------------------------------------------------
     1 (A) B              30 (A) B                -0.6411
     1 (A) A              30 (A) A                 0.6411
    ------------------------------------------------------
  ----------------------------------------------------------------------------


  Excited state 18 (A)                                             [converged]
  ----------------------------------------------------------------------------
  Term symbol:  19 (-) A                                    R^2 =  8.03617e-07

  Total energy:                                           -409.8839429404 a.u.
  Excitation energy:                                             720.900379 eV

  Osc. strength:                                                      0.037084
  Trans. dip. moment [a.u.]:           [  -0.015265,    0.033721,    0.027011]
  <i|r^2|0> [a.u.]:                    [   0.068398,    0.422080,    0.081013]

  V1^2 = 0.8715, V2^2 = 0.1285

  Important amplitudes:
     core i     occ j      vir a      vir b          v   
    ------------------------------------------------------
     1 (A) A              30 (A) A                -0.6486
     1 (A) B              30 (A) B                -0.6486
    ------------------------------------------------------
  ----------------------------------------------------------------------------


  Excited state 19 (A)                                         [not converged]
  ----------------------------------------------------------------------------
  Term symbol:  20 (-) A                                    R^2 =  7.35880e-06

  Total energy:                                           -409.8397913712 a.u.
  Excitation energy:                                             722.101804 eV


  V1^2 = 0.8687, V2^2 = 0.1313

  Important amplitudes:
     core i     occ j      vir a      vir b          v   
    ------------------------------------------------------
     1 (A) B              34 (A) B                 0.5488
     1 (A) A              34 (A) A                -0.5488
    ------------------------------------------------------
  ----------------------------------------------------------------------------


  Excited state 20 (A)                                         [not converged]
  ----------------------------------------------------------------------------
  Term symbol:  21 (-) A                                    R^2 =  6.75778e-03

  Total energy:                                           -409.8107002272 a.u.
  Excitation energy:                                             722.893414 eV


  V1^2 = 0.8544, V2^2 = 0.1456

  Important amplitudes:
     core i     occ j      vir a      vir b          v   
    ------------------------------------------------------
     1 (A) A              32 (A) A                -0.4881
     1 (A) B              32 (A) B                 0.4878
    ------------------------------------------------------
  ----------------------------------------------------------------------------


--------------------------------------------------------------------------------
  Time of ADC calculation:  CPU 1245.11 s  wall 230.18 s
================================================================================
 
 --------------------------------------------------------------
 
                    Orbital Energies (a.u.)
 --------------------------------------------------------------
 
 Alpha MOs
 -- Occupied --
-26.452 -26.422 -26.376 -26.238 -11.622  -1.886  -1.783  -1.699
 -1.506  -1.038  -0.953  -0.932  -0.903  -0.790  -0.771  -0.765
 -0.727  -0.701  -0.583  -0.578  -0.571
 -- Virtual --
  0.260   0.387   0.463   0.524   0.644   0.687   0.731   0.775
  1.236   1.269   1.302   1.312   1.315   1.438   1.529   1.545
  1.570   1.575   1.607   1.641   1.707   1.714   1.779   1.872
  1.913   2.002   2.033   2.068   2.080   2.117   2.190   2.232
  2.279   2.289   2.311   2.355   2.369   2.455   2.506   2.543
  2.760   2.916   3.081   3.147   3.282   3.359   3.509   3.553
  3.589   4.386   4.719   4.948   5.383   6.378
 
 Beta MOs
 -- Occupied --
-26.452 -26.422 -26.376 -26.238 -11.622  -1.886  -1.783  -1.699
 -1.506  -1.038  -0.953  -0.932  -0.903  -0.790  -0.771  -0.765
 -0.727  -0.701  -0.583  -0.578  -0.571
 -- Virtual --
  0.260   0.387   0.463   0.524   0.644   0.687   0.731   0.775
  1.236   1.269   1.302   1.312   1.315   1.438   1.529   1.545
  1.570   1.575   1.607   1.641   1.707   1.714   1.779   1.872
  1.913   2.002   2.033   2.068   2.080   2.117   2.190   2.232
  2.279   2.289   2.311   2.355   2.369   2.455   2.506   2.543
  2.760   2.916   3.081   3.147   3.282   3.359   3.509   3.553
  3.589   4.386   4.719   4.948   5.383   6.378
 --------------------------------------------------------------
 
          Ground-State Mulliken Net Atomic Charges

     Atom                 Charge (a.u.)    Spin (a.u.)
  --------------------------------------------------------
      1 C                     1.219859       0.000000
      2 F                    -0.315564       0.000000
      3 F                    -0.144049       0.000000
      4 F                    -0.544542       0.000000
      5 F                    -0.215703       0.000000
  --------------------------------------------------------
  Sum of atomic charges =     0.000000
  Sum of spin   charges =     0.000000

 -----------------------------------------------------------------
                    Cartesian Multipole Moments
 -----------------------------------------------------------------
    Charge (ESU x 10^10)
                 0.0000
    Dipole Moment (Debye)
         X       0.0862      Y       2.9618      Z      -0.6719
       Tot       3.0383
    Quadrupole Moments (Debye-Ang)
        XX     -24.8804     XY      -2.7101     YY     -11.8699
        XZ       0.6449     YZ      -0.6684     ZZ     -24.0988
    Octopole Moments (Debye-Ang^2)
       XXX      50.7849    XXY     -55.2395    XYY       6.3051
       YYY    -128.3801    XXZ      -0.7343    XYZ       0.3540
       YYZ      -0.9482    XZZ      17.2615    YZZ     -56.1317
       ZZZ       0.2063
    Hexadecapole Moments (Debye-Ang^3)
      XXXX    -143.7096   XXXY     114.4961   XXYY    -163.7913
      XYYY      85.9254   YYYY    -747.2033   XXXZ       0.7835
      XXYZ       0.2700   XYYZ      -0.6558   YYYZ      -1.7422
      XXZZ     -36.8360   XYZZ      39.8739   YYZZ    -157.4087
      XZZZ      -0.2805   YZZZ       2.9918   ZZZZ     -72.5010
 -----------------------------------------------------------------
Archival summary:
1\1\tp-linux1\SP\HF\6-31G*\41\thomas\TueMar1414:35:462017TueMar1414:35:462017\0\\#,HF,6-31G*,\\0,1\C\F,1,1.16691\F,1,1.21865,2,122.421\F,1,1.30283,2,116.471,3,-146.309,0\F,1,1.58866,2,104.874,3,112.187,0\\HF=-435.562605\\@

 Total job time:  232.66s(wall), 1254.86s(cpu) 
 Tue Mar 14 14:35:46 2017

        *************************************************************
        *                                                           *
        *  Thank you very much for using Q-Chem.  Have a nice day.  *
        *                                                           *
        *************************************************************


0 sent ACK to 0 
now end server 0 ... 
cleanup process ... done
