
Running Job 1 of 2 ddtraj1t0.inp
qchem ddtraj1t0.inp_11567.0 /scratch/qchem/qchem11567/ 1
/mnt/software/qchem/bin/mpi/mpirun_qchem -machinefile /mnt/software/qchem/bin/mpi/machines -np 1 /mnt/software/qchem/exe/qcprog.exe ddtraj1t0.inp_11567.0 /scratch/qchem/qchem11567/

Process 0 of 1 is on tp-linux1 - thread support 0
initial socket setup ...start
initial socket setup ...done 
now start server 0 ... 

cmd = ssh tp-linux1 /mnt/software/qchem/bin/get_hostid 937279444 > /scratch/qchem/qchem11567/lic.dat
                  Welcome to Q-Chem
     A Quantum Leap Into The Future Of Chemistry


 Q-Chem 4.3, Q-Chem, Inc., Pleasanton, CA (2015)

 Y. Shao,  Z. Gan,  E. Epifanovsky,  A. T. B. Gilbert,  M. Wormit,  
 J. Kussmann,  A. W. Lange,  A. Behn,  J. Deng,  X. Feng,  D. Ghosh,  
 M. Goldey,  P. R. Horn,  L. D. Jacobson,  I. Kaliman,  R. Z. Khaliullin,  
 T. Kus,  A. Landau,  J. Liu,  E. I. Proynov,  Y. M. Rhee,  R. M. Richard,  
 M. A. Rohrdanz,  R. P. Steele,  E. J. Sundstrom,  H. L. Woodcock III,  
 P. M. Zimmerman,  D. Zuev,  B. Albrecht,  E. Alguire,  B. Austin,  
 S. A. Baeppler,  G. J. O. Beran,  Y. A. Bernard,  E. Berquist,  
 K. Brandhorst,  K. B. Bravaya,  S. T. Brown,  D. Casanova,  C.-M. Chang,  
 Y. Chen,  S. H. Chien,  K. D. Closser,  D. L. Crittenden,  M. Diedenhofen,  
 R. A. DiStasio Jr.,  H. Do,  A. D. Dutoi,  R. G. Edgar,  P.-T. Fang,  
 S. Fatehi,  Q. Feng,  L. Fusti-Molnar,  A. Ghysels,  
 A. Golubeva-Zadorozhnaya,  J. Gomes,  A. Gunina,  M. W. D. Hanson-Heine,  
 P. H. P. Harbach,  A. W. Hauser,  E. G. Hohenstein,  Z. C. Holden,  K. Hui,  
 T.-C. Jagau,  H. Ji,  B. Kaduk,  K. Khistyaev,  Jaehoon Kim,  Jihan Kim,  
 R. A. King,  P. Klunzinger,  D. Kosenkov,  T. Kowalczyk,  C. M. Krauter,  
 K. U. Lao,  A. Laurent,  K. V. Lawler,  S. Lehtola,  S. V. Levchenko,  
 C. Y. Lin,  Y.-S. Lin,  F. Liu,  E. Livshits,  R. C. Lochan,  A. Luenser,  
 P. Manohar,  S. F. Manzer,  S.-P. Mao,  N. Mardirossian,  A. V. Marenich,  
 L. A. Martinez-Martinez,  S. A. Maurer,  N. J. Mayhall,  K. Nanda,  
 C. M. Oana,  R. Olivares-Amaya,  D. P. O'Neill,  J. A. Parkhill,  
 T. M. Perrine,  R. Peverati,  P. A. Pieniazek,  F. Plasser,  A. Prociuk,  
 D. R. Rehn,  E. Rosta,  N. J. Russ,  N. Sergueev,  S. M. Sharada,  
 S. Sharma,  D. W. Small,  A. Sodt,  T. Stauch,  T. Stein,  D. Stuck,  
 Y.-C. Su,  A. J. W. Thom,  T. Tsuchimochi,  L. Vogt,  O. Vydrov,  T. Wang,  
 M. A. Watson,  J. Wenzel,  A. White,  C. F. Williams,  V. Vanovschi,  
 S. Yeganeh,  S. R. Yost,  Z.-Q. You,  I. Y. Zhang,  X. Zhang,  Y. Zhao,  
 B. R. Brooks,  G. K. L. Chan,  D. M. Chipman,  C. J. Cramer,  
 W. A. Goddard III,  M. S. Gordon,  W. J. Hehre,  A. Klamt,  
 H. F. Schaefer III,  M. W. Schmidt,  C. D. Sherrill,  D. G. Truhlar,  
 A. Warshel,  X. Xu,  A. Aspuru-Guzik,  R. Baer,  A. T. Bell,  N. A. Besley,  
 J.-D. Chai,  A. Dreuw,  B. D. Dunietz,  T. R. Furlani,  S. R. Gwaltney,  
 C.-P. Hsu,  Y. Jung,  J. Kong,  D. S. Lambrecht,  W. Liang,  C. Ochsenfeld,  
 V. A. Rassolov,  L. V. Slipchenko,  J. E. Subotnik,  T. Van Voorhis,  
 J. M. Herbert,  A. I. Krylov,  P. M. W. Gill,  M. Head-Gordon

 Contributors to earlier versions of Q-Chem not listed above: 
 R. D. Adamson,  J. Baker,  E. F. C. Byrd,  A. K. Chakraborty,  C.-L. Cheng,  
 H. Dachsel,  R. J. Doerksen,  G. Hawkins,  A. Heyden,  S. Hirata,  
 G. Kedziora,  F. J. Keil,  C. Kelley,  P. P. Korambath,  W. Kurlancheek,  
 A. M. Lee,  M. S. Lee,  D. Liotard,  I. Lotan,  P. E. Maslen,  N. Nair,  
 D. Neuhauser,  R. Olson,  B. Peters,  J. Ritchie,  N. E. Schultz,  
 N. Shenvi,  A. C. Simmonett,  K. S. Thanthiriwatte,  Q. Wu,  W. Zhang

 Please cite Q-Chem as follows:
 Y. Shao et al., Mol. Phys. 113, 184-215 (2015)
 DOI: 10.1080/00268976.2014.952696

 Q-Chem 4.3.0 for Intel X86 Linux

 Parts of Q-Chem use Armadillo 5.200.1 (Boston Tea Smuggler).
 http://arma.sourceforge.net/

 Q-Chem begins on Wed Mar 15 13:45:39 2017  

Host: 
0

     Scratch files written to /scratch/qchem/qchem11567//
 Nov1815 1189b_ 19540  19532 5443   
 Parallel job on  1  processors
Processing $rem in /mnt/software/qchem/config/preferences.
 MEM_TOTAL  2000 

Checking the input file for inconsistencies... 	...done.

--------------------------------------------------------------
User input:
--------------------------------------------------------------
$comment
XAS calculation for the 2b valence excited for water using cvs-adc(2)-x + 6-311+G* basis set
job 1 - determination of HF orbitals
$end

$molecule
0 1
6  -0.69934  2.34967  0.0
9  0.60215  2.34967  -0.0
9  -1.13316  3.29245  0.78541
9  -1.13317  1.1981  0.42375
9  -1.13317  2.55847  -1.20916
$end

$rem
jobtype      sp
sym_ignore true
exchange     hf
basis        6-31G*
unrestricted true
$end

--------------------------------------------------------------
 ----------------------------------------------------------------
             Standard Nuclear Orientation (Angstroms)
    I     Atom           X                Y                Z
 ----------------------------------------------------------------
    1      C      -0.6993400000     2.3496700000     0.0000000000
    2      F       0.6021500000     2.3496700000     0.0000000000
    3      F      -1.1331600000     3.2924500000     0.7854100000
    4      F      -1.1331700000     1.1981000000     0.4237500000
    5      F      -1.1331700000     2.5584700000    -1.2091600000
 ----------------------------------------------------------------
 Nuclear Repulsion Energy =   208.8311212848 hartrees
 There are       21 alpha and       21 beta electrons
 Requested basis set is 6-31G(d)
 There are 20 shells and 75 basis functions

 Total QAlloc Memory Limit   2000 MB
 Mega-Array Size        61 MB
 MEM_STATIC part        62 MB

                       Distance Matrix (Angstroms)
             C (  1)   F (  2)   F (  3)   F (  4)
   F (  2)  1.301490
   F (  3)  1.301500  2.125324
   F (  4)  1.301494  2.125327  2.125347
   F (  5)  1.301489  2.125324  2.125332  2.125324
 
 tim1(1): 
  0.000000000000000E+000
 tim1(2): 
  0.000000000000000E+000
 A cutoff of  1.0D-08 yielded    204 shell pairs
 There are      2979 function pairs
 
 -------------------------------------------------------
 OpenMP Integral Computing Module                       
 Release: version 1.0, May 2013, Q-Chem Inc. Pittsburgh 
 -------------------------------------------------------
 Integral Job Info:
 Integral job number is                      11
 Integral operator is                         1
 short-range coefficients                     0
 long-range coefficients              100000000
 Omega coefficients                           0
 if combine SR and LR in K                    0
 Integral screening is                        0
 Integral computing path is                   2
 max size of driver memory is            800000
 size of driver memory is                593474
 size of scratch memory is              2260544
 max col of scratch BK array               1296
 max len of scratch array in speh3          155
 max len of scratch index in speh4           18
 max int batch size is                      520
 min int batch size is                       52
 fixed nKL is                                52
 max L of basis functions is                  2
 order of int derivative is                   0
 number of shells is                         20
 number of basis is                          75
 number of cartesian basis is                75
 number of contracted shell pairs           204
 number of primitive shell pairs            982
 maxK2 (contraction) of shell pair           36
 max number of K2 of shell pair               1
 max number of CS2 of shell pair             31
 max number of PS2 of shell pair            180
 mem total for path MDJ                   21832
 -------------------------------------------------------
 Smallest overlap matrix eigenvalue = 1.75E-03

 Scale SEOQF with 1.000000e+00/1.000000e-01/1.000000e+00

 Standard Electronic Orientation quadrupole field applied
 Nucleus-field energy     =     0.0000000108 hartrees
 Guess from superposition of atomic densities
 Warning:  Energy on first SCF cycle will be non-variational
 An unrestricted Hartree-Fock SCF calculation will be
 performed using Pulay DIIS extrapolation
 SCF converges when DIIS error is below 1.0E-05
 using 8 threads for integral computing 
 ---------------------------------------
  Cycle       Energy         DIIS Error
 ---------------------------------------
    1    -436.6440699490      8.95E-02
    2    -435.4874197961      1.71E-02
    3    -435.6052808227      9.43E-03
    4    -435.6444123533      9.76E-04
    5    -435.6451115165      2.96E-04
    6    -435.6452033215      4.99E-05
    7    -435.6452068520      5.98E-06 Convergence criterion met
 ---------------------------------------
 <S^2> = 0.0000
 SCF time:  CPU 9.47 s  wall 2.02 s
 SCF   energy in the final basis set = -435.6452068520
 Total energy in the final basis set = -435.6452068520
 
 --------------------------------------------------------------
 
                    Orbital Energies (a.u.)
 --------------------------------------------------------------
 
 Alpha MOs
 -- Occupied --
-26.374 -26.374 -26.374 -26.374 -11.605  -1.813  -1.679  -1.679
 -1.679  -1.005  -0.890  -0.890  -0.890  -0.759  -0.759  -0.705
 -0.705  -0.705  -0.673  -0.673  -0.673
 -- Virtual --
  0.438   0.438   0.438   0.442   0.676   0.676   0.676   0.689
  1.297   1.297   1.300   1.300   1.300   1.408   1.572   1.572
  1.613   1.613   1.613   1.659   1.659   1.659   1.817   1.817
  1.817   2.090   2.090   2.090   2.117   2.117   2.222   2.222
  2.222   2.310   2.310   2.310   2.389   2.389   2.389   2.585
  2.942   2.942   2.942   3.163   3.163   3.386   3.426   3.426
  3.426   4.713   4.733   4.733   4.733   6.301
 
 Beta MOs
 -- Occupied --
-26.374 -26.374 -26.374 -26.374 -11.605  -1.813  -1.679  -1.679
 -1.679  -1.005  -0.890  -0.890  -0.890  -0.759  -0.759  -0.705
 -0.705  -0.705  -0.673  -0.673  -0.673
 -- Virtual --
  0.438   0.438   0.438   0.442   0.676   0.676   0.676   0.689
  1.297   1.297   1.300   1.300   1.300   1.408   1.572   1.572
  1.613   1.613   1.613   1.659   1.659   1.659   1.817   1.817
  1.817   2.090   2.090   2.090   2.117   2.117   2.222   2.222
  2.222   2.310   2.310   2.310   2.389   2.389   2.389   2.585
  2.942   2.942   2.942   3.163   3.163   3.386   3.426   3.426
  3.426   4.713   4.733   4.733   4.733   6.301
 --------------------------------------------------------------
 
          Ground-State Mulliken Net Atomic Charges

     Atom                 Charge (a.u.)    Spin (a.u.)
  --------------------------------------------------------
      1 C                     1.312610       0.000000
      2 F                    -0.328150       0.000000
      3 F                    -0.328166       0.000000
      4 F                    -0.328153       0.000000
      5 F                    -0.328141       0.000000
  --------------------------------------------------------
  Sum of atomic charges =     0.000000
  Sum of spin   charges =     0.000000

 -----------------------------------------------------------------
                    Cartesian Multipole Moments
 -----------------------------------------------------------------
    Charge (ESU x 10^10)
                 0.0000
    Dipole Moment (Debye)
         X       0.0000      Y       0.0000      Z      -0.0001
       Tot       0.0001
    Quadrupole Moments (Debye-Ang)
        XX     -24.9359     XY       0.0000     YY     -24.9361
        XZ       0.0001     YZ      -0.0002     ZZ     -24.9359
    Octopole Moments (Debye-Ang^2)
       XXX      50.8260    XXY     -58.5911    XYY      18.1837
       YYY    -175.2576    XXZ      -0.0001    XYZ       0.0003
       YYZ      -0.9185    XZZ      18.1835    YZZ     -59.1081
       ZZZ       0.9177
    Hexadecapole Moments (Debye-Ang^3)
      XXXX    -146.2688   XXXY     119.4245   XXYY    -176.6377
      XYYY     127.8025   YYYY    -898.4118   XXXZ       0.0001
      XXYZ      -0.0004   XYYZ       0.6652   YYYZ      -6.4722
      XXZZ     -38.9673   XYZZ      43.0995   YYZZ    -165.8481
      XZZZ      -0.6644   YZZZ       2.1560   ZZZZ     -77.2452
 -----------------------------------------------------------------
Archival summary:
1\1\tp-linux1\SP\HF\6-31G*\41\thomas\WedMar1513:45:432017WedMar1513:45:432017\0\\#,HF,6-31G*,\\0,1\C\F,1,1.30149\F,1,1.30149,2,109.471\F,1,1.30149,2,109.471,3,120,0\F,1,1.3015,2,109.471,3,-119.999,0\\HF=-435.645207\\@

 Total job time:  4.09s(wall), 11.55s(cpu) 
 Wed Mar 15 13:45:43 2017

        *************************************************************
        *                                                           *
        *  Thank you very much for using Q-Chem.  Have a nice day.  *
        *                                                           *
        *************************************************************


0 sent ACK to 0 
now end server 0 ... 
cleanup process ... done

Running Job 2 of 2 ddtraj1t0.inp
qchem ddtraj1t0.inp_11567.1 /scratch/qchem/qchem11567/ 1
/mnt/software/qchem/bin/mpi/mpirun_qchem -machinefile /mnt/software/qchem/bin/mpi/machines -np 1 /mnt/software/qchem/exe/qcprog.exe ddtraj1t0.inp_11567.1 /scratch/qchem/qchem11567/

Process 0 of 1 is on tp-linux1 - thread support 0
initial socket setup ...start
initial socket setup ...done 
now start server 0 ... 

cmd = ssh tp-linux1 /mnt/software/qchem/bin/get_hostid 946838773 > /scratch/qchem/qchem11567/lic.dat
                  Welcome to Q-Chem
     A Quantum Leap Into The Future Of Chemistry


 Q-Chem 4.3, Q-Chem, Inc., Pleasanton, CA (2015)

 Y. Shao,  Z. Gan,  E. Epifanovsky,  A. T. B. Gilbert,  M. Wormit,  
 J. Kussmann,  A. W. Lange,  A. Behn,  J. Deng,  X. Feng,  D. Ghosh,  
 M. Goldey,  P. R. Horn,  L. D. Jacobson,  I. Kaliman,  R. Z. Khaliullin,  
 T. Kus,  A. Landau,  J. Liu,  E. I. Proynov,  Y. M. Rhee,  R. M. Richard,  
 M. A. Rohrdanz,  R. P. Steele,  E. J. Sundstrom,  H. L. Woodcock III,  
 P. M. Zimmerman,  D. Zuev,  B. Albrecht,  E. Alguire,  B. Austin,  
 S. A. Baeppler,  G. J. O. Beran,  Y. A. Bernard,  E. Berquist,  
 K. Brandhorst,  K. B. Bravaya,  S. T. Brown,  D. Casanova,  C.-M. Chang,  
 Y. Chen,  S. H. Chien,  K. D. Closser,  D. L. Crittenden,  M. Diedenhofen,  
 R. A. DiStasio Jr.,  H. Do,  A. D. Dutoi,  R. G. Edgar,  P.-T. Fang,  
 S. Fatehi,  Q. Feng,  L. Fusti-Molnar,  A. Ghysels,  
 A. Golubeva-Zadorozhnaya,  J. Gomes,  A. Gunina,  M. W. D. Hanson-Heine,  
 P. H. P. Harbach,  A. W. Hauser,  E. G. Hohenstein,  Z. C. Holden,  K. Hui,  
 T.-C. Jagau,  H. Ji,  B. Kaduk,  K. Khistyaev,  Jaehoon Kim,  Jihan Kim,  
 R. A. King,  P. Klunzinger,  D. Kosenkov,  T. Kowalczyk,  C. M. Krauter,  
 K. U. Lao,  A. Laurent,  K. V. Lawler,  S. Lehtola,  S. V. Levchenko,  
 C. Y. Lin,  Y.-S. Lin,  F. Liu,  E. Livshits,  R. C. Lochan,  A. Luenser,  
 P. Manohar,  S. F. Manzer,  S.-P. Mao,  N. Mardirossian,  A. V. Marenich,  
 L. A. Martinez-Martinez,  S. A. Maurer,  N. J. Mayhall,  K. Nanda,  
 C. M. Oana,  R. Olivares-Amaya,  D. P. O'Neill,  J. A. Parkhill,  
 T. M. Perrine,  R. Peverati,  P. A. Pieniazek,  F. Plasser,  A. Prociuk,  
 D. R. Rehn,  E. Rosta,  N. J. Russ,  N. Sergueev,  S. M. Sharada,  
 S. Sharma,  D. W. Small,  A. Sodt,  T. Stauch,  T. Stein,  D. Stuck,  
 Y.-C. Su,  A. J. W. Thom,  T. Tsuchimochi,  L. Vogt,  O. Vydrov,  T. Wang,  
 M. A. Watson,  J. Wenzel,  A. White,  C. F. Williams,  V. Vanovschi,  
 S. Yeganeh,  S. R. Yost,  Z.-Q. You,  I. Y. Zhang,  X. Zhang,  Y. Zhao,  
 B. R. Brooks,  G. K. L. Chan,  D. M. Chipman,  C. J. Cramer,  
 W. A. Goddard III,  M. S. Gordon,  W. J. Hehre,  A. Klamt,  
 H. F. Schaefer III,  M. W. Schmidt,  C. D. Sherrill,  D. G. Truhlar,  
 A. Warshel,  X. Xu,  A. Aspuru-Guzik,  R. Baer,  A. T. Bell,  N. A. Besley,  
 J.-D. Chai,  A. Dreuw,  B. D. Dunietz,  T. R. Furlani,  S. R. Gwaltney,  
 C.-P. Hsu,  Y. Jung,  J. Kong,  D. S. Lambrecht,  W. Liang,  C. Ochsenfeld,  
 V. A. Rassolov,  L. V. Slipchenko,  J. E. Subotnik,  T. Van Voorhis,  
 J. M. Herbert,  A. I. Krylov,  P. M. W. Gill,  M. Head-Gordon

 Contributors to earlier versions of Q-Chem not listed above: 
 R. D. Adamson,  J. Baker,  E. F. C. Byrd,  A. K. Chakraborty,  C.-L. Cheng,  
 H. Dachsel,  R. J. Doerksen,  G. Hawkins,  A. Heyden,  S. Hirata,  
 G. Kedziora,  F. J. Keil,  C. Kelley,  P. P. Korambath,  W. Kurlancheek,  
 A. M. Lee,  M. S. Lee,  D. Liotard,  I. Lotan,  P. E. Maslen,  N. Nair,  
 D. Neuhauser,  R. Olson,  B. Peters,  J. Ritchie,  N. E. Schultz,  
 N. Shenvi,  A. C. Simmonett,  K. S. Thanthiriwatte,  Q. Wu,  W. Zhang

 Please cite Q-Chem as follows:
 Y. Shao et al., Mol. Phys. 113, 184-215 (2015)
 DOI: 10.1080/00268976.2014.952696

 Q-Chem 4.3.0 for Intel X86 Linux

 Parts of Q-Chem use Armadillo 5.200.1 (Boston Tea Smuggler).
 http://arma.sourceforge.net/

 Q-Chem begins on Wed Mar 15 13:45:45 2017  

Host: 
0

     Scratch files written to /scratch/qchem/qchem11567//
 Nov1815 1189b_ 19540  19532 5443   
 Parallel job on  1  processors
Processing $rem in /mnt/software/qchem/config/preferences.
 MEM_TOTAL  2000 

Checking the input file for inconsistencies... 	...done.

--------------------------------------------------------------
User input:
--------------------------------------------------------------

$comment
job3 - cvs-adc(2) calculation
$end

$molecule
read
$end

$rem
mem_total 3000
mem_static 1500
sym_ignore true
scf_guess read
method cvs-adc(2)
basis 6-31G*
ee_singlets 20
cc_rest_occ 5                  !only excitations from the lowest N orbitals
unrestricted  true
max_scf_cycles 200
$end
--------------------------------------------------------------
 ----------------------------------------------------------------
             Standard Nuclear Orientation (Angstroms)
    I     Atom           X                Y                Z
 ----------------------------------------------------------------
    1      C      -0.6993400000     2.3496700000     0.0000000000
    2      F       0.6021500000     2.3496700000     0.0000000000
    3      F      -1.1331600000     3.2924500000     0.7854100000
    4      F      -1.1331700000     1.1981000000     0.4237500000
    5      F      -1.1331700000     2.5584700000    -1.2091600000
 ----------------------------------------------------------------
 Nuclear Repulsion Energy =   208.8311212848 hartrees
 There are       21 alpha and       21 beta electrons
 Requested basis set is 6-31G(d)
 There are 20 shells and 75 basis functions

 Total QAlloc Memory Limit   3000 MB
 Mega-Array Size      1467 MB
 MEM_STATIC part      1500 MB

                       Distance Matrix (Angstroms)
             C (  1)   F (  2)   F (  3)   F (  4)
   F (  2)  1.301490
   F (  3)  1.301500  2.125324
   F (  4)  1.301494  2.125327  2.125347
   F (  5)  1.301489  2.125324  2.125332  2.125324
 
 tim1(1): 
  0.000000000000000E+000
 tim1(2): 
  0.000000000000000E+000
 A cutoff of  1.0D-11 yielded    204 shell pairs
 There are      2979 function pairs
 
 -------------------------------------------------------
 OpenMP Integral Computing Module                       
 Release: version 1.0, May 2013, Q-Chem Inc. Pittsburgh 
 -------------------------------------------------------
 Integral Job Info:
 Integral job number is                      11
 Integral operator is                         1
 short-range coefficients                     0
 long-range coefficients              100000000
 Omega coefficients                           0
 if combine SR and LR in K                    0
 Integral screening is                        0
 Integral computing path is                   2
 max size of driver memory is            800000
 size of driver memory is                593474
 size of scratch memory is              2260544
 max col of scratch BK array               1296
 max len of scratch array in speh3          155
 max len of scratch index in speh4           18
 max int batch size is                      520
 min int batch size is                       52
 fixed nKL is                                52
 max L of basis functions is                  2
 order of int derivative is                   0
 number of shells is                         20
 number of basis is                          75
 number of cartesian basis is                75
 number of contracted shell pairs           204
 number of primitive shell pairs           1074
 maxK2 (contraction) of shell pair           36
 max number of K2 of shell pair               1
 max number of CS2 of shell pair             37
 max number of PS2 of shell pair            222
 mem total for path MDJ                   21832
 -------------------------------------------------------
 Smallest overlap matrix eigenvalue = 1.75E-03

 Scale SEOQF with 1.000000e+00/1.000000e-01/1.000000e+00

 Standard Electronic Orientation quadrupole field applied
 Nucleus-field energy     =     0.0000000108 hartrees
 Guess MOs from SCF MO coefficient file
 Reading MOs from coefficient file
 Reading MOs from coefficient file
 An unrestricted Hartree-Fock SCF calculation will be
 performed using Pulay DIIS extrapolation
 SCF converges when DIIS error is below 1.0E-08
 using 8 threads for integral computing 
 ---------------------------------------
  Cycle       Energy         DIIS Error
 ---------------------------------------
    1    -435.6452068514      1.08E-06
    2    -435.6452068524      4.59E-07
    3    -435.6452068527      2.29E-07
    4    -435.6452068527      3.10E-08
    5    -435.6452068527      4.21E-09 Convergence criterion met
 ---------------------------------------
 <S^2> = 0.0000
 SCF time:  CPU 4.90 s  wall 1.30 s
 SCF   energy in the final basis set = -435.6452068527
 Total energy in the final basis set = -435.6452068527
================================================================================
|                                                                              |
|                                 A D C  M A N                                 |
|                                                                              |
 ------------------------------------------------------------------------------ 
|                                                                              |
| Components:                                                                  |
|                                                                              |
| - libvmm - 1.2-release                                                       |
|   Authors:                                                                   |
|   Evgeny Epifanovsky, Ilya Kaliman                                           |
|                                                                              |
| - libtensor - 2.4-trunk                                                      |
|   Authors:                                                                   |
|   Evgeny Epifanovsky, Michael Wormit, Dmitry Zuev, Sam Manzer                |
|                                                                              |
| - libwfa - 1.1-beta                                                          |
|   Authors:                                                                   |
|   Felix Plasser, Stefanie Baeppler, Benjamin Thomitzni, Michael Wormit       |
|                                                                              |
| - libadc - 1.0-beta                                                          |
|   Authors:                                                                   |
|   Michael Wormit, Philipp H. P. Harbach, Caroline Krauter, Dirk Rehn,        |
|   Matthias Schneider, Jan Wenzel                                             |
|                                                                              |
| - adcman - 2.4-beta                                                          |
|   Authors:                                                                   |
|   Michael Wormit, Philipp H. P. Harbach, Caroline Krauter, Dirk Rehn,        |
|   Jan Wenzel, Andreas Dreuw                                                  |
|                                                                              |
| Authors of earlier versions of ADCMAN:                                       |
| Andreas Dreuw, Jan Hendrik Starcke, Dirk Rehn, Michael Wormit                |
|                                                                              |
================================================================================

 
 Alpha MOs, Unrestricted
 -- Occupied --                  
-26.374 -26.374 -26.374 -26.374 -11.605  -1.813  -1.679  -1.679
  1 A     2 A     3 A     4 A     5 A     6 A     7 A     8 A                  
 -1.679  -1.005  -0.890  -0.890  -0.890  -0.759  -0.759  -0.705
  9 A    10 A    11 A    12 A    13 A    14 A    15 A    16 A                  
 -0.705  -0.705  -0.673  -0.673  -0.673
 17 A    18 A    19 A    20 A    21 A                                          
 -- Virtual --                   
  0.438   0.438   0.438   0.442   0.676   0.676   0.676   0.689
 22 A    23 A    24 A    25 A    26 A    27 A    28 A    29 A                  
  1.297   1.297   1.300   1.300   1.300   1.408   1.572   1.572
 30 A    31 A    32 A    33 A    34 A    35 A    36 A    37 A                  
  1.613   1.613   1.613   1.659   1.659   1.659   1.817   1.817
 38 A    39 A    40 A    41 A    42 A    43 A    44 A    45 A                  
  1.817   2.090   2.090   2.090   2.117   2.117   2.222   2.222
 46 A    47 A    48 A    49 A    50 A    51 A    52 A    53 A                  
  2.222   2.310   2.310   2.310   2.389   2.389   2.389   2.585
 54 A    55 A    56 A    57 A    58 A    59 A    60 A    61 A                  
  2.942   2.942   2.942   3.163   3.163   3.386   3.426   3.426
 62 A    63 A    64 A    65 A    66 A    67 A    68 A    69 A                  
  3.426   4.713   4.733   4.733   4.733   6.301
 70 A    71 A    72 A    73 A    74 A    75 A                                  
 
 Beta MOs, Unrestricted
 -- Occupied --                  
-26.374 -26.374 -26.374 -26.374 -11.605  -1.813  -1.679  -1.679
  1 A     2 A     3 A     4 A     5 A     6 A     7 A     8 A                  
 -1.679  -1.005  -0.890  -0.890  -0.890  -0.759  -0.759  -0.705
  9 A    10 A    11 A    12 A    13 A    14 A    15 A    16 A                  
 -0.705  -0.705  -0.673  -0.673  -0.673
 17 A    18 A    19 A    20 A    21 A                                          
 -- Virtual --                   
  0.438   0.438   0.438   0.442   0.676   0.676   0.676   0.689
 22 A    23 A    24 A    25 A    26 A    27 A    28 A    29 A                  
  1.297   1.297   1.300   1.300   1.300   1.408   1.572   1.572
 30 A    31 A    32 A    33 A    34 A    35 A    36 A    37 A                  
  1.613   1.613   1.613   1.659   1.659   1.659   1.817   1.817
 38 A    39 A    40 A    41 A    42 A    43 A    44 A    45 A                  
  1.817   2.090   2.090   2.090   2.117   2.117   2.222   2.222
 46 A    47 A    48 A    49 A    50 A    51 A    52 A    53 A                  
  2.222   2.310   2.310   2.310   2.389   2.389   2.389   2.585
 54 A    55 A    56 A    57 A    58 A    59 A    60 A    61 A                  
  2.942   2.942   2.942   3.163   3.163   3.386   3.426   3.426
 62 A    63 A    64 A    65 A    66 A    67 A    68 A    69 A                  
  3.426   4.713   4.733   4.733   4.733   6.301
 70 A    71 A    72 A    73 A    74 A    75 A                                  
 

--------------------------------------------------------------------------------
                                   HF Summary                                   
--------------------------------------------------------------------------------
  Energy:                                                 -435.6452068527 a.u.
  Dip. moment [a.u.]:                  [ -55.505392,  186.489958,    0.000009]
  Total dipole [Debye]:                                             494.559906
  <r^2> [a.u.]:                        [ 164.479767,  919.187570,   91.126486]
  Total <r^2> [a.u.]:                                              1174.793823
--------------------------------------------------------------------------------

--------------------------------------------------------------------------------
                                 MP(2) Summary                                  
--------------------------------------------------------------------------------
  Energy contribution:                                      -0.7984537131 a.u.
  Total energy:                                           -436.4436605658 a.u.
  Dip. moment [a.u.]:                  [ -55.505393,  186.489957,    0.000009]
  Total dipole [Debye]:                                             494.559904
  <r^2> [a.u.]:                        [ 164.419956,  919.127731,   91.066669]
  Total <r^2> [a.u.]:                                              1174.614357
--------------------------------------------------------------------------------
  Starting Davidson ... 
--------------------------------------------------------------------------------
   It NVec Conv  Avg. Norm  Max. Norm  Conv. states           Remark
--------------------------------------------------------------------------------
        20    0  2.110e-01  1.035e+00 11.2775 n n n n n n n n Guess.
    1   40    0  3.903e-02  3.482e-01 11.0862 n n n n n n n n 
    2   60    0  6.895e-03  5.567e-02 11.0842 n n n n n n n n 
    3   80    0  3.172e-03  3.073e-02 11.0842 n n n n n n n n 
    4  100    0  9.014e-04  9.041e-03 11.0842 n n n n n n n n 
    5   40    0  2.684e-04  2.670e-03 11.0842 n n n n n n n n Subspace collapsed.
    6   60    0  9.598e-05  9.512e-04 11.0842 n n n n n n n n 
    7   80    0  3.922e-05  3.743e-04 11.0842 n n n n n n n n 
    8  100    2  2.151e-05  2.092e-04 11.0842 n n n n n n y y 
    9   40    9  6.279e-06  5.767e-05 11.0842 y y y y y y y y Subspace collapsed.
   10   60   10  4.192e-06  3.608e-05 11.0842 y y y y y y y y 
   11   80   10  1.381e-06  1.302e-05 11.0842 y y y y y y y y 
   12  100   13  7.372e-07  7.605e-06 11.0842 y y y y y y y y 
   13   40   16  4.278e-07  4.493e-06 11.0842 y y y y y y y y Subspace collapsed.
   14   60   16  2.435e-07  2.656e-06 11.0842 y y y y y y y y 
   15   80   19  1.159e-07  1.731e-06 11.0842 y y y y y y y y 
   16  100   19  7.668e-08  1.126e-06 11.0842 y y y y y y y y 
   17   40   20  2.636e-08  4.094e-07 11.0842 y y y y y y y y Converged.
--------------------------------------------------------------------------------
  Davidson Summary: 
 ------------------------------------------------------------
  State  0: excitation energy =  11.0842 a.u.   (converged)
  State  1: excitation energy =  11.0842 a.u.   (converged)
  State  2: excitation energy =  11.0842 a.u.   (converged)
  State  3: excitation energy =  11.1631 a.u.   (converged)
  State  4: excitation energy =  11.1631 a.u.   (converged)
  State  5: excitation energy =  11.1631 a.u.   (converged)
  State  6: excitation energy =  11.1692 a.u.   (converged)
  State  7: excitation energy =  11.2663 a.u.   (converged)
  State  8: excitation energy =  11.5140 a.u.   (converged)
  State  9: excitation energy =  11.5253 a.u.   (converged)
  State 10: excitation energy =  11.5253 a.u.   (converged)
  State 11: excitation energy =  11.5253 a.u.   (converged)
  State 12: excitation energy =  11.5396 a.u.   (converged)
  State 13: excitation energy =  11.5396 a.u.   (converged)
  State 14: excitation energy =  11.5396 a.u.   (converged)
  State 15: excitation energy =  11.5424 a.u.   (converged)
  State 16: excitation energy =  12.1338 a.u.   (converged)
  State 17: excitation energy =  12.1338 a.u.   (converged)
  State 18: excitation energy =  12.1346 a.u.   (converged)
  State 19: excitation energy =  12.1346 a.u.   (converged)
 ------------------------------------------------------------


--------------------------------------------------------------------------------
                             Excited State Summary
--------------------------------------------------------------------------------

  Excited state  1 (A)                                             [converged]
  ----------------------------------------------------------------------------
  Term symbol:  2 (-) A                                     R^2 =  2.83582e-12

  Total energy:                                           -425.3595081511 a.u.
  Excitation energy:                                             301.615127 eV

  Osc. strength:                                                      0.000000
  Trans. dip. moment [a.u.]:           [   0.000000,   -0.000000,   -0.000000]
  <i|r^2|0> [a.u.]:                    [  -0.000000,   -0.000000,    0.000000]

  V1^2 = 0.9562, V2^2 = 0.0438

  Important amplitudes:
     core i     occ j      vir a      vir b          v   
    ------------------------------------------------------
     5 (A) B              22 (A) B                 0.5652
     5 (A) A              22 (A) A                -0.5652
    ------------------------------------------------------
  ----------------------------------------------------------------------------


  Excited state  2 (A)                                             [converged]
  ----------------------------------------------------------------------------
  Term symbol:  3 (-) A                                     R^2 =  2.86489e-12

  Total energy:                                           -425.3595033716 a.u.
  Excitation energy:                                             301.615257 eV

  Osc. strength:                                                      0.000000
  Trans. dip. moment [a.u.]:           [   0.000000,    0.000000,   -0.000000]
  <i|r^2|0> [a.u.]:                    [  -0.000000,    0.000000,   -0.000000]

  V1^2 = 0.9562, V2^2 = 0.0438

  Important amplitudes:
     core i     occ j      vir a      vir b          v   
    ------------------------------------------------------
     5 (A) B              24 (A) B                 0.4293
     5 (A) A              24 (A) A                -0.4293
    ------------------------------------------------------
  ----------------------------------------------------------------------------


  Excited state  3 (A)                                             [converged]
  ----------------------------------------------------------------------------
  Term symbol:  4 (-) A                                     R^2 =  2.99165e-12

  Total energy:                                           -425.3595011828 a.u.
  Excitation energy:                                             301.615316 eV

  Osc. strength:                                                      0.000000
  Trans. dip. moment [a.u.]:           [   0.000000,   -0.000000,    0.000000]
  <i|r^2|0> [a.u.]:                    [  -0.000000,   -0.000000,    0.000000]

  V1^2 = 0.9562, V2^2 = 0.0438

  Important amplitudes:
     core i     occ j      vir a      vir b          v   
    ------------------------------------------------------
     5 (A) A              23 (A) A                -0.4465
     5 (A) B              23 (A) B                 0.4465
    ------------------------------------------------------
  ----------------------------------------------------------------------------


  Excited state  4 (A)                                             [converged]
  ----------------------------------------------------------------------------
  Term symbol:  5 (-) A                                     R^2 =  6.48911e-12

  Total energy:                                           -425.2805313149 a.u.
  Excitation energy:                                             303.764196 eV

  Osc. strength:                                                      0.122573
  Trans. dip. moment [a.u.]:           [   0.082686,   -0.051489,   -0.083559]
  <i|r^2|0> [a.u.]:                    [  -0.223508,   -0.452757,    0.000462]

  V1^2 = 0.9490, V2^2 = 0.0510

  Important amplitudes:
     core i     occ j      vir a      vir b          v   
    ------------------------------------------------------
     5 (A) B              22 (A) B                 0.5982
     5 (A) A              22 (A) A                 0.5982
    ------------------------------------------------------
  ----------------------------------------------------------------------------


  Excited state  5 (A)                                             [converged]
  ----------------------------------------------------------------------------
  Term symbol:  6 (-) A                                     R^2 =  6.49415e-12

  Total energy:                                           -425.2805263124 a.u.
  Excitation energy:                                             303.764332 eV

  Osc. strength:                                                      0.122574
  Trans. dip. moment [a.u.]:           [   0.010615,    0.113310,   -0.059317]
  <i|r^2|0> [a.u.]:                    [  -0.028692,    1.011110,   -0.004230]

  V1^2 = 0.9490, V2^2 = 0.0510

  Important amplitudes:
     core i     occ j      vir a      vir b          v   
    ------------------------------------------------------
     5 (A) B              23 (A) B                -0.4350
     5 (A) A              23 (A) A                -0.4350
    ------------------------------------------------------
  ----------------------------------------------------------------------------


  Excited state  6 (A)                                             [converged]
  ----------------------------------------------------------------------------
  Term symbol:  7 (-) A                                     R^2 =  6.49608e-12

  Total energy:                                           -425.2805243547 a.u.
  Excitation energy:                                             303.764385 eV

  Osc. strength:                                                      0.122573
  Trans. dip. moment [a.u.]:           [  -0.097573,   -0.031307,   -0.077263]
  <i|r^2|0> [a.u.]:                    [   0.263748,   -0.278741,   -0.005127]

  V1^2 = 0.9490, V2^2 = 0.0510

  Important amplitudes:
     core i     occ j      vir a      vir b          v   
    ------------------------------------------------------
     5 (A) A              23 (A) A                -0.4334
     5 (A) B              23 (A) B                -0.4334
    ------------------------------------------------------
  ----------------------------------------------------------------------------


  Excited state  7 (A)                                             [converged]
  ----------------------------------------------------------------------------
  Term symbol:  8 (-) A                                     R^2 =  6.68944e-13

  Total energy:                                           -425.2744329030 a.u.
  Excitation energy:                                             303.930142 eV

  Osc. strength:                                                      0.000000
  Trans. dip. moment [a.u.]:           [   0.000000,    0.000000,    0.000000]
  <i|r^2|0> [a.u.]:                    [  -0.000000,    0.000000,   -0.000000]

  V1^2 = 0.9348, V2^2 = 0.0652

  Important amplitudes:
     core i     occ j      vir a      vir b          v   
    ------------------------------------------------------
     5 (A) B              25 (A) B                -0.5923
     5 (A) A              25 (A) A                 0.5923
    ------------------------------------------------------
  ----------------------------------------------------------------------------


  Excited state  8 (A)                                             [converged]
  ----------------------------------------------------------------------------
  Term symbol:  9 (-) A                                     R^2 =  1.60375e-12

  Total energy:                                           -425.1774091899 a.u.
  Excitation energy:                                             306.570291 eV

  Osc. strength:                                                      0.000000
  Trans. dip. moment [a.u.]:           [   0.000005,   -0.000001,   -0.000006]
  <i|r^2|0> [a.u.]:                    [   0.026110,    0.026118,    0.026125]

  V1^2 = 0.9176, V2^2 = 0.0824

  Important amplitudes:
     core i     occ j      vir a      vir b          v   
    ------------------------------------------------------
     5 (A) A              25 (A) A                 0.6367
     5 (A) B              25 (A) B                 0.6367
    ------------------------------------------------------
  ----------------------------------------------------------------------------


  Excited state  9 (A)                                             [converged]
  ----------------------------------------------------------------------------
  Term symbol:  10 (-) A                                    R^2 =  2.51107e-10

  Total energy:                                           -424.9296783797 a.u.
  Excitation energy:                                             313.311389 eV

  Osc. strength:                                                      0.000000
  Trans. dip. moment [a.u.]:           [   0.000000,   -0.000000,   -0.000000]
  <i|r^2|0> [a.u.]:                    [   0.000000,   -0.000000,    0.000000]

  V1^2 = 0.8972, V2^2 = 0.1028

  Important amplitudes:
     core i     occ j      vir a      vir b          v   
    ------------------------------------------------------
     5 (A) A              29 (A) A                 0.5883
     5 (A) B              29 (A) B                -0.5883
    ------------------------------------------------------
  ----------------------------------------------------------------------------


  Excited state 10 (A)                                             [converged]
  ----------------------------------------------------------------------------
  Term symbol:  11 (-) A                                    R^2 =  7.79925e-09

  Total energy:                                           -424.9183246435 a.u.
  Excitation energy:                                             313.620340 eV

  Osc. strength:                                                      0.000000
  Trans. dip. moment [a.u.]:           [  -0.000000,    0.000000,   -0.000000]
  <i|r^2|0> [a.u.]:                    [   0.000000,    0.000000,    0.000000]

  V1^2 = 0.8901, V2^2 = 0.1099

  Important amplitudes:
     core i     occ j      vir a      vir b          v   
    ------------------------------------------------------
     5 (A) B              28 (A) B                 0.4885
     5 (A) A              28 (A) A                -0.4885
    ------------------------------------------------------
  ----------------------------------------------------------------------------


  Excited state 11 (A)                                             [converged]
  ----------------------------------------------------------------------------
  Term symbol:  12 (-) A                                    R^2 =  1.21370e-08

  Total energy:                                           -424.9183238408 a.u.
  Excitation energy:                                             313.620362 eV

  Osc. strength:                                                      0.000000
  Trans. dip. moment [a.u.]:           [  -0.000000,   -0.000000,   -0.000000]
  <i|r^2|0> [a.u.]:                    [   0.000000,   -0.000000,    0.000000]

  V1^2 = 0.8901, V2^2 = 0.1099

  Important amplitudes:
     core i     occ j      vir a      vir b          v   
    ------------------------------------------------------
     5 (A) B              27 (A) B                -0.3986
     5 (A) A              27 (A) A                 0.3986
    ------------------------------------------------------
  ----------------------------------------------------------------------------


  Excited state 12 (A)                                             [converged]
  ----------------------------------------------------------------------------
  Term symbol:  13 (-) A                                    R^2 =  8.64722e-09

  Total energy:                                           -424.9183227361 a.u.
  Excitation energy:                                             313.620392 eV

  Osc. strength:                                                      0.000000
  Trans. dip. moment [a.u.]:           [   0.000000,   -0.000000,   -0.000000]
  <i|r^2|0> [a.u.]:                    [  -0.000000,   -0.000000,    0.000000]

  V1^2 = 0.8901, V2^2 = 0.1099

  Important amplitudes:
     core i     occ j      vir a      vir b          v   
    ------------------------------------------------------
     5 (A) B              26 (A) B                 0.4694
     5 (A) A              26 (A) A                -0.4694
    ------------------------------------------------------
  ----------------------------------------------------------------------------


  Excited state 13 (A)                                             [converged]
  ----------------------------------------------------------------------------
  Term symbol:  14 (-) A                                    R^2 =  9.47824e-08

  Total energy:                                           -424.9040368987 a.u.
  Excitation energy:                                             314.009130 eV

  Osc. strength:                                                      0.026726
  Trans. dip. moment [a.u.]:           [  -0.057743,    0.006915,   -0.009594]
  <i|r^2|0> [a.u.]:                    [   0.153035,    0.061264,   -0.000264]

  V1^2 = 0.8927, V2^2 = 0.1073

  Important amplitudes:
     core i     occ j      vir a      vir b          v   
    ------------------------------------------------------
     5 (A) B              28 (A) B                 0.5041
     5 (A) A              28 (A) A                 0.5041
    ------------------------------------------------------
  ----------------------------------------------------------------------------


  Excited state 14 (A)                                             [converged]
  ----------------------------------------------------------------------------
  Term symbol:  15 (-) A                                    R^2 =  9.41234e-08

  Total energy:                                           -424.9040362925 a.u.
  Excitation energy:                                             314.009146 eV

  Osc. strength:                                                      0.026726
  Trans. dip. moment [a.u.]:           [  -0.009011,    0.005245,    0.058011]
  <i|r^2|0> [a.u.]:                    [   0.023877,    0.046302,    0.000207]

  V1^2 = 0.8927, V2^2 = 0.1073

  Important amplitudes:
     core i     occ j      vir a      vir b          v   
    ------------------------------------------------------
     5 (A) A              26 (A) A                -0.3806
     5 (A) B              26 (A) B                -0.3806
    ------------------------------------------------------
  ----------------------------------------------------------------------------


  Excited state 15 (A)                                             [converged]
  ----------------------------------------------------------------------------
  Term symbol:  16 (-) A                                    R^2 =  9.49435e-08

  Total energy:                                           -424.9040356685 a.u.
  Excitation energy:                                             314.009163 eV

  Osc. strength:                                                      0.026725
  Trans. dip. moment [a.u.]:           [   0.007660,    0.058298,   -0.004082]
  <i|r^2|0> [a.u.]:                    [  -0.020306,    0.517894,   -0.000140]

  V1^2 = 0.8927, V2^2 = 0.1073

  Important amplitudes:
     core i     occ j      vir a      vir b          v   
    ------------------------------------------------------
     5 (A) B              26 (A) B                -0.4246
     5 (A) A              26 (A) A                -0.4246
    ------------------------------------------------------
  ----------------------------------------------------------------------------


  Excited state 16 (A)                                             [converged]
  ----------------------------------------------------------------------------
  Term symbol:  17 (-) A                                    R^2 =  2.25874e-10

  Total energy:                                           -424.9012437155 a.u.
  Excitation energy:                                             314.085136 eV

  Osc. strength:                                                      0.000000
  Trans. dip. moment [a.u.]:           [  -0.000005,   -0.000013,   -0.000008]
  <i|r^2|0> [a.u.]:                    [  -0.020488,   -0.020620,   -0.020501]

  V1^2 = 0.9020, V2^2 = 0.0980

  Important amplitudes:
     core i     occ j      vir a      vir b          v   
    ------------------------------------------------------
     5 (A) B              29 (A) B                -0.6366
     5 (A) A              29 (A) A                -0.6366
    ------------------------------------------------------
  ----------------------------------------------------------------------------


  Excited state 17 (A)                                             [converged]
  ----------------------------------------------------------------------------
  Term symbol:  18 (-) A                                    R^2 =  1.82652e-07

  Total energy:                                           -424.3098904214 a.u.
  Excitation energy:                                             330.176678 eV

  Osc. strength:                                                      0.000000
  Trans. dip. moment [a.u.]:           [   0.000000,   -0.000000,    0.000000]
  <i|r^2|0> [a.u.]:                    [  -0.000000,   -0.000000,   -0.000000]

  V1^2 = 0.8869, V2^2 = 0.1131

  Important amplitudes:
     core i     occ j      vir a      vir b          v   
    ------------------------------------------------------
     5 (A) B              30 (A) B                 0.6575
     5 (A) A              30 (A) A                -0.6575
    ------------------------------------------------------
  ----------------------------------------------------------------------------


  Excited state 18 (A)                                             [converged]
  ----------------------------------------------------------------------------
  Term symbol:  19 (-) A                                    R^2 =  4.09403e-07

  Total energy:                                           -424.3098888767 a.u.
  Excitation energy:                                             330.176720 eV

  Osc. strength:                                                      0.000000
  Trans. dip. moment [a.u.]:           [   0.000000,    0.000000,    0.000000]
  <i|r^2|0> [a.u.]:                    [  -0.000000,    0.000000,    0.000000]

  V1^2 = 0.8869, V2^2 = 0.1131

  Important amplitudes:
     core i     occ j      vir a      vir b          v   
    ------------------------------------------------------
     5 (A) B              31 (A) B                -0.6575
     5 (A) A              31 (A) A                 0.6575
    ------------------------------------------------------
  ----------------------------------------------------------------------------


  Excited state 19 (A)                                             [converged]
  ----------------------------------------------------------------------------
  Term symbol:  20 (-) A                                    R^2 =  1.55937e-07

  Total energy:                                           -424.3090483044 a.u.
  Excitation energy:                                             330.199593 eV

  Osc. strength:                                                      0.000000
  Trans. dip. moment [a.u.]:           [   0.000000,    0.000000,    0.000000]
  <i|r^2|0> [a.u.]:                    [  -0.000000,    0.000745,   -0.000745]

  V1^2 = 0.8867, V2^2 = 0.1133

  Important amplitudes:
     core i     occ j      vir a      vir b          v   
    ------------------------------------------------------
     5 (A) A              30 (A) A                -0.6581
     5 (A) B              30 (A) B                -0.6581
    ------------------------------------------------------
  ----------------------------------------------------------------------------


  Excited state 20 (A)                                             [converged]
  ----------------------------------------------------------------------------
  Term symbol:  21 (-) A                                    R^2 =  1.60022e-07

  Total energy:                                           -424.3090467376 a.u.
  Excitation energy:                                             330.199635 eV

  Osc. strength:                                                      0.000000
  Trans. dip. moment [a.u.]:           [   0.000000,    0.000000,   -0.000000]
  <i|r^2|0> [a.u.]:                    [  -0.000001,   -0.007151,    0.007152]

  V1^2 = 0.8867, V2^2 = 0.1133

  Important amplitudes:
     core i     occ j      vir a      vir b          v   
    ------------------------------------------------------
     5 (A) A              31 (A) A                 0.6581
     5 (A) B              31 (A) B                 0.6581
    ------------------------------------------------------
  ----------------------------------------------------------------------------


--------------------------------------------------------------------------------
  Time of ADC calculation:  CPU 1325.47 s  wall 787.38 s
================================================================================
 
 --------------------------------------------------------------
 
                    Orbital Energies (a.u.)
 --------------------------------------------------------------
 
 Alpha MOs
 -- Occupied --
-26.374 -26.374 -26.374 -26.374 -11.605  -1.813  -1.679  -1.679
 -1.679  -1.005  -0.890  -0.890  -0.890  -0.759  -0.759  -0.705
 -0.705  -0.705  -0.673  -0.673  -0.673
 -- Virtual --
  0.438   0.438   0.438   0.442   0.676   0.676   0.676   0.689
  1.297   1.297   1.300   1.300   1.300   1.408   1.572   1.572
  1.613   1.613   1.613   1.659   1.659   1.659   1.817   1.817
  1.817   2.090   2.090   2.090   2.117   2.117   2.222   2.222
  2.222   2.310   2.310   2.310   2.389   2.389   2.389   2.585
  2.942   2.942   2.942   3.163   3.163   3.386   3.426   3.426
  3.426   4.713   4.733   4.733   4.733   6.301
 
 Beta MOs
 -- Occupied --
-26.374 -26.374 -26.374 -26.374 -11.605  -1.813  -1.679  -1.679
 -1.679  -1.005  -0.890  -0.890  -0.890  -0.759  -0.759  -0.705
 -0.705  -0.705  -0.673  -0.673  -0.673
 -- Virtual --
  0.438   0.438   0.438   0.442   0.676   0.676   0.676   0.689
  1.297   1.297   1.300   1.300   1.300   1.408   1.572   1.572
  1.613   1.613   1.613   1.659   1.659   1.659   1.817   1.817
  1.817   2.090   2.090   2.090   2.117   2.117   2.222   2.222
  2.222   2.310   2.310   2.310   2.389   2.389   2.389   2.585
  2.942   2.942   2.942   3.163   3.163   3.386   3.426   3.426
  3.426   4.713   4.733   4.733   4.733   6.301
 --------------------------------------------------------------
 
          Ground-State Mulliken Net Atomic Charges

     Atom                 Charge (a.u.)    Spin (a.u.)
  --------------------------------------------------------
      1 C                     1.312620       0.000000
      2 F                    -0.328153       0.000000
      3 F                    -0.328161       0.000000
      4 F                    -0.328155       0.000000
      5 F                    -0.328151       0.000000
  --------------------------------------------------------
  Sum of atomic charges =     0.000000
  Sum of spin   charges =     0.000000

 -----------------------------------------------------------------
                    Cartesian Multipole Moments
 -----------------------------------------------------------------
    Charge (ESU x 10^10)
                 0.0000
    Dipole Moment (Debye)
         X       0.0000      Y       0.0000      Z       0.0000
       Tot       0.0000
    Quadrupole Moments (Debye-Ang)
        XX     -24.9359     XY       0.0000     YY     -24.9360
        XZ       0.0000     YZ      -0.0001     ZZ     -24.9359
    Octopole Moments (Debye-Ang^2)
       XXX      50.8260    XXY     -58.5911    XYY      18.1836
       YYY    -175.2572    XXZ       0.0000    XYZ       0.0001
       YYZ      -0.9182    XZZ      18.1835    YZZ     -59.1082
       ZZZ       0.9178
    Hexadecapole Moments (Debye-Ang^3)
      XXXX    -146.2688   XXXY     119.4244   XXYY    -176.6376
      XYYY     127.8022   YYYY    -898.4102   XXXZ      -0.0001
      XXYZ      -0.0002   XYYZ       0.6648   YYYZ      -6.4713
      XXZZ     -38.9674   XYZZ      43.0996   YYZZ    -165.8483
      XZZZ      -0.6646   YZZZ       2.1562   ZZZZ     -77.2452
 -----------------------------------------------------------------
Archival summary:
1\1\tp-linux1\SP\HF\6-31G*\41\thomas\WedMar1513:58:562017WedMar1513:58:562017\0\\#,HF,6-31G*,\\0,1\C\F,1,1.30149\F,1,1.30149,2,109.471\F,1,1.30149,2,109.471,3,120,0\F,1,1.3015,2,109.471,3,-119.999,0\\HF=-435.645207\\@

 Total job time:  790.78s(wall), 1333.76s(cpu) 
 Wed Mar 15 13:58:56 2017

        *************************************************************
        *                                                           *
        *  Thank you very much for using Q-Chem.  Have a nice day.  *
        *                                                           *
        *************************************************************


0 sent ACK to 0 
now end server 0 ... 
cleanup process ... done
