
Running Job 1 of 2 ddtraj3t20.inp
qchem ddtraj3t20.inp_4776.0 /scratch/qchem/qchem4776/ 1
/mnt/software/qchem/bin/mpi/mpirun_qchem -machinefile /mnt/software/qchem/bin/mpi/machines -np 1 /mnt/software/qchem/exe/qcprog.exe ddtraj3t20.inp_4776.0 /scratch/qchem/qchem4776/

Process 0 of 1 is on tp-linux1 - thread support 0
initial socket setup ...start
initial socket setup ...done 
now start server 0 ... 

cmd = ssh tp-linux1 /mnt/software/qchem/bin/get_hostid 341569672 > /scratch/qchem/qchem4776/lic.dat
                  Welcome to Q-Chem
     A Quantum Leap Into The Future Of Chemistry


 Q-Chem 4.3, Q-Chem, Inc., Pleasanton, CA (2015)

 Y. Shao,  Z. Gan,  E. Epifanovsky,  A. T. B. Gilbert,  M. Wormit,  
 J. Kussmann,  A. W. Lange,  A. Behn,  J. Deng,  X. Feng,  D. Ghosh,  
 M. Goldey,  P. R. Horn,  L. D. Jacobson,  I. Kaliman,  R. Z. Khaliullin,  
 T. Kus,  A. Landau,  J. Liu,  E. I. Proynov,  Y. M. Rhee,  R. M. Richard,  
 M. A. Rohrdanz,  R. P. Steele,  E. J. Sundstrom,  H. L. Woodcock III,  
 P. M. Zimmerman,  D. Zuev,  B. Albrecht,  E. Alguire,  B. Austin,  
 S. A. Baeppler,  G. J. O. Beran,  Y. A. Bernard,  E. Berquist,  
 K. Brandhorst,  K. B. Bravaya,  S. T. Brown,  D. Casanova,  C.-M. Chang,  
 Y. Chen,  S. H. Chien,  K. D. Closser,  D. L. Crittenden,  M. Diedenhofen,  
 R. A. DiStasio Jr.,  H. Do,  A. D. Dutoi,  R. G. Edgar,  P.-T. Fang,  
 S. Fatehi,  Q. Feng,  L. Fusti-Molnar,  A. Ghysels,  
 A. Golubeva-Zadorozhnaya,  J. Gomes,  A. Gunina,  M. W. D. Hanson-Heine,  
 P. H. P. Harbach,  A. W. Hauser,  E. G. Hohenstein,  Z. C. Holden,  K. Hui,  
 T.-C. Jagau,  H. Ji,  B. Kaduk,  K. Khistyaev,  Jaehoon Kim,  Jihan Kim,  
 R. A. King,  P. Klunzinger,  D. Kosenkov,  T. Kowalczyk,  C. M. Krauter,  
 K. U. Lao,  A. Laurent,  K. V. Lawler,  S. Lehtola,  S. V. Levchenko,  
 C. Y. Lin,  Y.-S. Lin,  F. Liu,  E. Livshits,  R. C. Lochan,  A. Luenser,  
 P. Manohar,  S. F. Manzer,  S.-P. Mao,  N. Mardirossian,  A. V. Marenich,  
 L. A. Martinez-Martinez,  S. A. Maurer,  N. J. Mayhall,  K. Nanda,  
 C. M. Oana,  R. Olivares-Amaya,  D. P. O'Neill,  J. A. Parkhill,  
 T. M. Perrine,  R. Peverati,  P. A. Pieniazek,  F. Plasser,  A. Prociuk,  
 D. R. Rehn,  E. Rosta,  N. J. Russ,  N. Sergueev,  S. M. Sharada,  
 S. Sharma,  D. W. Small,  A. Sodt,  T. Stauch,  T. Stein,  D. Stuck,  
 Y.-C. Su,  A. J. W. Thom,  T. Tsuchimochi,  L. Vogt,  O. Vydrov,  T. Wang,  
 M. A. Watson,  J. Wenzel,  A. White,  C. F. Williams,  V. Vanovschi,  
 S. Yeganeh,  S. R. Yost,  Z.-Q. You,  I. Y. Zhang,  X. Zhang,  Y. Zhao,  
 B. R. Brooks,  G. K. L. Chan,  D. M. Chipman,  C. J. Cramer,  
 W. A. Goddard III,  M. S. Gordon,  W. J. Hehre,  A. Klamt,  
 H. F. Schaefer III,  M. W. Schmidt,  C. D. Sherrill,  D. G. Truhlar,  
 A. Warshel,  X. Xu,  A. Aspuru-Guzik,  R. Baer,  A. T. Bell,  N. A. Besley,  
 J.-D. Chai,  A. Dreuw,  B. D. Dunietz,  T. R. Furlani,  S. R. Gwaltney,  
 C.-P. Hsu,  Y. Jung,  J. Kong,  D. S. Lambrecht,  W. Liang,  C. Ochsenfeld,  
 V. A. Rassolov,  L. V. Slipchenko,  J. E. Subotnik,  T. Van Voorhis,  
 J. M. Herbert,  A. I. Krylov,  P. M. W. Gill,  M. Head-Gordon

 Contributors to earlier versions of Q-Chem not listed above: 
 R. D. Adamson,  J. Baker,  E. F. C. Byrd,  A. K. Chakraborty,  C.-L. Cheng,  
 H. Dachsel,  R. J. Doerksen,  G. Hawkins,  A. Heyden,  S. Hirata,  
 G. Kedziora,  F. J. Keil,  C. Kelley,  P. P. Korambath,  W. Kurlancheek,  
 A. M. Lee,  M. S. Lee,  D. Liotard,  I. Lotan,  P. E. Maslen,  N. Nair,  
 D. Neuhauser,  R. Olson,  B. Peters,  J. Ritchie,  N. E. Schultz,  
 N. Shenvi,  A. C. Simmonett,  K. S. Thanthiriwatte,  Q. Wu,  W. Zhang

 Please cite Q-Chem as follows:
 Y. Shao et al., Mol. Phys. 113, 184-215 (2015)
 DOI: 10.1080/00268976.2014.952696

 Q-Chem 4.3.0 for Intel X86 Linux

 Parts of Q-Chem use Armadillo 5.200.1 (Boston Tea Smuggler).
 http://arma.sourceforge.net/

 Q-Chem begins on Sat Mar 18 08:13:23 2017  

Host: 
0

     Scratch files written to /scratch/qchem/qchem4776//
 Nov1815 1189b_ 19540  19532 5443   
 Parallel job on  1  processors
Processing $rem in /mnt/software/qchem/config/preferences.
 MEM_TOTAL  2000 

Checking the input file for inconsistencies... 	...done.

--------------------------------------------------------------
User input:
--------------------------------------------------------------
$comment
XAS calculation for the 2b valence excited for water using cvs-adc(2)-x + 6-311+G* basis set
job 1 - determination of HF orbitals
$end

$molecule
0 1
6  -0.494074  3.018514  -0.213242
9  0.732309  2.431111  -0.059009
9  -1.13535  3.102654  0.789292
9  -1.432895  0.938325  0.663282
9  -1.099918  2.539376  -1.255185
$end

$rem
jobtype      sp
sym_ignore true
exchange     hf
basis        6-31G*
unrestricted true
$end

--------------------------------------------------------------
 ----------------------------------------------------------------
             Standard Nuclear Orientation (Angstroms)
    I     Atom           X                Y                Z
 ----------------------------------------------------------------
    1      C      -0.4940740000     3.0185140000    -0.2132420000
    2      F       0.7323090000     2.4311110000    -0.0590090000
    3      F      -1.1353500000     3.1026540000     0.7892920000
    4      F      -1.4328950000     0.9383250000     0.6632820000
    5      F      -1.0999180000     2.5393760000    -1.2551850000
 ----------------------------------------------------------------
 Nuclear Repulsion Energy =   190.4928989587 hartrees
 There are       21 alpha and       21 beta electrons
 Requested basis set is 6-31G(d)
 There are 20 shells and 75 basis functions

 Total QAlloc Memory Limit   2000 MB
 Mega-Array Size        61 MB
 MEM_STATIC part        62 MB

                       Distance Matrix (Angstroms)
             C (  1)   F (  2)   F (  3)   F (  4)
   F (  2)  1.368519
   F (  3)  1.193059  2.158410
   F (  4)  2.444763  2.727311  2.188317
   F (  5)  1.297022  2.190802  2.120949  2.520864
 
 tim1(1): 
  0.000000000000000E+000
 tim1(2): 
  0.000000000000000E+000
 A cutoff of  1.0D-08 yielded    192 shell pairs
 There are      2930 function pairs
 
 -------------------------------------------------------
 OpenMP Integral Computing Module                       
 Release: version 1.0, May 2013, Q-Chem Inc. Pittsburgh 
 -------------------------------------------------------
 Integral Job Info:
 Integral job number is                      11
 Integral operator is                         1
 short-range coefficients                     0
 long-range coefficients              100000000
 Omega coefficients                           0
 if combine SR and LR in K                    0
 Integral screening is                        0
 Integral computing path is                   2
 max size of driver memory is            800000
 size of driver memory is                593474
 size of scratch memory is              2260544
 max col of scratch BK array               1296
 max len of scratch array in speh3          155
 max len of scratch index in speh4           18
 max int batch size is                      520
 min int batch size is                       52
 fixed nKL is                                52
 max L of basis functions is                  2
 order of int derivative is                   0
 number of shells is                         20
 number of basis is                          75
 number of cartesian basis is                75
 number of contracted shell pairs           192
 number of primitive shell pairs            933
 maxK2 (contraction) of shell pair           36
 max number of K2 of shell pair               1
 max number of CS2 of shell pair             28
 max number of PS2 of shell pair            180
 mem total for path MDJ                   20584
 -------------------------------------------------------
 Smallest overlap matrix eigenvalue = 2.00E-03

 Scale SEOQF with 1.000000e+00/1.000000e-01/1.000000e+00

 Standard Electronic Orientation quadrupole field applied
 Nucleus-field energy     =     0.0000000097 hartrees
 Guess from superposition of atomic densities
 Warning:  Energy on first SCF cycle will be non-variational
 An unrestricted Hartree-Fock SCF calculation will be
 performed using Pulay DIIS extrapolation
 SCF converges when DIIS error is below 1.0E-05
 using 8 threads for integral computing 
 ---------------------------------------
  Cycle       Energy         DIIS Error
 ---------------------------------------
    1    -435.9666850629      8.14E-02
    2    -435.0156809794      2.24E-02
    3    -433.9824518525      4.07E-02
    4    -435.2388872669      1.18E-02
    5    -435.2822344036      6.97E-03
    6    -435.3096956722      2.25E-03
    7    -435.3136646211      5.02E-04
    8    -435.3143450096      2.57E-04
    9    -435.3146108003      2.25E-04
   10    -435.3147836109      1.36E-04
   11    -435.3148902757      4.04E-05
   12    -435.3149092094      5.49E-05
   13    -435.3149171025      2.51E-05
   14    -435.3149213016      6.16E-06 Convergence criterion met
 ---------------------------------------
 <S^2> = 0.0000
 SCF time:  CPU 12.78 s  wall 3.47 s
 SCF   energy in the final basis set = -435.3149213016
 Total energy in the final basis set = -435.3149213016
 
 --------------------------------------------------------------
 
                    Orbital Energies (a.u.)
 --------------------------------------------------------------
 
 Alpha MOs
 -- Occupied --
-26.549 -26.500 -26.479 -26.012 -11.721  -1.923  -1.805  -1.748
 -1.268  -1.094  -0.984  -0.975  -0.926  -0.827  -0.810  -0.801
 -0.779  -0.772  -0.375  -0.375  -0.344
 -- Virtual --
 -0.102   0.281   0.327   0.370   0.547   0.569   0.642   0.756
  1.196   1.225   1.238   1.261   1.283   1.397   1.476   1.506
  1.522   1.535   1.543   1.552   1.636   1.714   1.795   1.858
  1.881   1.944   1.968   1.978   2.006   2.038   2.049   2.126
  2.180   2.190   2.252   2.285   2.374   2.381   2.391   2.540
  2.596   2.719   2.773   2.853   3.002   3.076   3.321   3.352
  3.503   4.202   4.465   4.532   4.810   6.148
 
 Beta MOs
 -- Occupied --
-26.549 -26.500 -26.479 -26.012 -11.721  -1.923  -1.805  -1.748
 -1.268  -1.094  -0.984  -0.975  -0.926  -0.827  -0.810  -0.801
 -0.779  -0.772  -0.375  -0.375  -0.344
 -- Virtual --
 -0.102   0.281   0.327   0.370   0.547   0.569   0.642   0.756
  1.196   1.225   1.238   1.261   1.283   1.397   1.476   1.506
  1.522   1.535   1.543   1.552   1.636   1.714   1.795   1.858
  1.881   1.944   1.968   1.978   2.006   2.038   2.049   2.126
  2.180   2.190   2.252   2.285   2.374   2.381   2.391   2.540
  2.596   2.719   2.773   2.853   3.002   3.076   3.321   3.352
  3.503   4.202   4.465   4.532   4.810   6.148
 --------------------------------------------------------------
 
          Ground-State Mulliken Net Atomic Charges

     Atom                 Charge (a.u.)    Spin (a.u.)
  --------------------------------------------------------
      1 C                     1.199788       0.000000
      2 F                    -0.236240       0.000000
      3 F                    -0.000138       0.000000
      4 F                    -0.795581       0.000000
      5 F                    -0.167829       0.000000
  --------------------------------------------------------
  Sum of atomic charges =     0.000000
  Sum of spin   charges =     0.000000

 -----------------------------------------------------------------
                    Cartesian Multipole Moments
 -----------------------------------------------------------------
    Charge (ESU x 10^10)
                 0.0000
    Dipole Moment (Debye)
         X       2.8664      Y       8.1103      Z      -2.8237
       Tot       9.0535
    Quadrupole Moments (Debye-Ang)
        XX     -29.4687     XY      -2.2588     YY      10.5855
        XZ       3.4088     YZ      -3.6623     ZZ     -24.3618
    Octopole Moments (Debye-Ang^2)
       XXX      59.0984    XXY     -57.8891    XYY      -0.8756
       YYY     -46.0786    XXZ      -4.6790    XYZ       2.8996
       YYZ      -7.4731    XZZ      18.0010    YZZ     -54.5934
       ZZZ      -1.1640
    Hexadecapole Moments (Debye-Ang^3)
      XXXX    -180.9644   XXXY     106.9447   XXYY    -168.8222
      XYYY      37.7878   YYYY    -478.3428   XXXZ      14.4628
      XXYZ       0.8731   XYYZ       4.4050   YYYZ     -10.6711
      XXZZ     -44.3403   XYZZ      34.0109   YYZZ    -157.0401
      XZZZ       8.9532   YZZZ      12.6047   ZZZZ     -86.9156
 -----------------------------------------------------------------
Archival summary:
1\1\tp-linux1\SP\HF\6-31G*\41\thomas\SatMar1808:13:272017SatMar1808:13:272017\0\\#,HF,6-31G*,\\0,1\F\C,1,1.19306\F,2,1.29702,1,116.746\F,2,1.36852,1,114.661,3,131.555,0\F,1,2.18832,2,87.4177,3,-59.3448,0\\HF=-435.314921\\@

 Total job time:  3.79s(wall), 14.50s(cpu) 
 Sat Mar 18 08:13:27 2017

        *************************************************************
        *                                                           *
        *  Thank you very much for using Q-Chem.  Have a nice day.  *
        *                                                           *
        *************************************************************


0 sent ACK to 0 
now end server 0 ... 
cleanup process ... done

Running Job 2 of 2 ddtraj3t20.inp
qchem ddtraj3t20.inp_4776.1 /scratch/qchem/qchem4776/ 1
/mnt/software/qchem/bin/mpi/mpirun_qchem -machinefile /mnt/software/qchem/bin/mpi/machines -np 1 /mnt/software/qchem/exe/qcprog.exe ddtraj3t20.inp_4776.1 /scratch/qchem/qchem4776/

Process 0 of 1 is on tp-linux1 - thread support 0
initial socket setup ...start
initial socket setup ...done 
now start server 0 ... 

cmd = ssh tp-linux1 /mnt/software/qchem/bin/get_hostid 347309723 > /scratch/qchem/qchem4776/lic.dat
                  Welcome to Q-Chem
     A Quantum Leap Into The Future Of Chemistry


 Q-Chem 4.3, Q-Chem, Inc., Pleasanton, CA (2015)

 Y. Shao,  Z. Gan,  E. Epifanovsky,  A. T. B. Gilbert,  M. Wormit,  
 J. Kussmann,  A. W. Lange,  A. Behn,  J. Deng,  X. Feng,  D. Ghosh,  
 M. Goldey,  P. R. Horn,  L. D. Jacobson,  I. Kaliman,  R. Z. Khaliullin,  
 T. Kus,  A. Landau,  J. Liu,  E. I. Proynov,  Y. M. Rhee,  R. M. Richard,  
 M. A. Rohrdanz,  R. P. Steele,  E. J. Sundstrom,  H. L. Woodcock III,  
 P. M. Zimmerman,  D. Zuev,  B. Albrecht,  E. Alguire,  B. Austin,  
 S. A. Baeppler,  G. J. O. Beran,  Y. A. Bernard,  E. Berquist,  
 K. Brandhorst,  K. B. Bravaya,  S. T. Brown,  D. Casanova,  C.-M. Chang,  
 Y. Chen,  S. H. Chien,  K. D. Closser,  D. L. Crittenden,  M. Diedenhofen,  
 R. A. DiStasio Jr.,  H. Do,  A. D. Dutoi,  R. G. Edgar,  P.-T. Fang,  
 S. Fatehi,  Q. Feng,  L. Fusti-Molnar,  A. Ghysels,  
 A. Golubeva-Zadorozhnaya,  J. Gomes,  A. Gunina,  M. W. D. Hanson-Heine,  
 P. H. P. Harbach,  A. W. Hauser,  E. G. Hohenstein,  Z. C. Holden,  K. Hui,  
 T.-C. Jagau,  H. Ji,  B. Kaduk,  K. Khistyaev,  Jaehoon Kim,  Jihan Kim,  
 R. A. King,  P. Klunzinger,  D. Kosenkov,  T. Kowalczyk,  C. M. Krauter,  
 K. U. Lao,  A. Laurent,  K. V. Lawler,  S. Lehtola,  S. V. Levchenko,  
 C. Y. Lin,  Y.-S. Lin,  F. Liu,  E. Livshits,  R. C. Lochan,  A. Luenser,  
 P. Manohar,  S. F. Manzer,  S.-P. Mao,  N. Mardirossian,  A. V. Marenich,  
 L. A. Martinez-Martinez,  S. A. Maurer,  N. J. Mayhall,  K. Nanda,  
 C. M. Oana,  R. Olivares-Amaya,  D. P. O'Neill,  J. A. Parkhill,  
 T. M. Perrine,  R. Peverati,  P. A. Pieniazek,  F. Plasser,  A. Prociuk,  
 D. R. Rehn,  E. Rosta,  N. J. Russ,  N. Sergueev,  S. M. Sharada,  
 S. Sharma,  D. W. Small,  A. Sodt,  T. Stauch,  T. Stein,  D. Stuck,  
 Y.-C. Su,  A. J. W. Thom,  T. Tsuchimochi,  L. Vogt,  O. Vydrov,  T. Wang,  
 M. A. Watson,  J. Wenzel,  A. White,  C. F. Williams,  V. Vanovschi,  
 S. Yeganeh,  S. R. Yost,  Z.-Q. You,  I. Y. Zhang,  X. Zhang,  Y. Zhao,  
 B. R. Brooks,  G. K. L. Chan,  D. M. Chipman,  C. J. Cramer,  
 W. A. Goddard III,  M. S. Gordon,  W. J. Hehre,  A. Klamt,  
 H. F. Schaefer III,  M. W. Schmidt,  C. D. Sherrill,  D. G. Truhlar,  
 A. Warshel,  X. Xu,  A. Aspuru-Guzik,  R. Baer,  A. T. Bell,  N. A. Besley,  
 J.-D. Chai,  A. Dreuw,  B. D. Dunietz,  T. R. Furlani,  S. R. Gwaltney,  
 C.-P. Hsu,  Y. Jung,  J. Kong,  D. S. Lambrecht,  W. Liang,  C. Ochsenfeld,  
 V. A. Rassolov,  L. V. Slipchenko,  J. E. Subotnik,  T. Van Voorhis,  
 J. M. Herbert,  A. I. Krylov,  P. M. W. Gill,  M. Head-Gordon

 Contributors to earlier versions of Q-Chem not listed above: 
 R. D. Adamson,  J. Baker,  E. F. C. Byrd,  A. K. Chakraborty,  C.-L. Cheng,  
 H. Dachsel,  R. J. Doerksen,  G. Hawkins,  A. Heyden,  S. Hirata,  
 G. Kedziora,  F. J. Keil,  C. Kelley,  P. P. Korambath,  W. Kurlancheek,  
 A. M. Lee,  M. S. Lee,  D. Liotard,  I. Lotan,  P. E. Maslen,  N. Nair,  
 D. Neuhauser,  R. Olson,  B. Peters,  J. Ritchie,  N. E. Schultz,  
 N. Shenvi,  A. C. Simmonett,  K. S. Thanthiriwatte,  Q. Wu,  W. Zhang

 Please cite Q-Chem as follows:
 Y. Shao et al., Mol. Phys. 113, 184-215 (2015)
 DOI: 10.1080/00268976.2014.952696

 Q-Chem 4.3.0 for Intel X86 Linux

 Parts of Q-Chem use Armadillo 5.200.1 (Boston Tea Smuggler).
 http://arma.sourceforge.net/

 Q-Chem begins on Sat Mar 18 08:13:30 2017  

Host: 
0

     Scratch files written to /scratch/qchem/qchem4776//
 Nov1815 1189b_ 19540  19532 5443   
 Parallel job on  1  processors
Processing $rem in /mnt/software/qchem/config/preferences.
 MEM_TOTAL  2000 

Checking the input file for inconsistencies... 	...done.

--------------------------------------------------------------
User input:
--------------------------------------------------------------

$comment
job3 - cvs-adc(2) calculation
$end

$molecule
read
$end

$rem
mem_total 3000
mem_static 1500
sym_ignore true
scf_guess read
method cvs-adc(2)
basis 6-31G*
ee_singlets 20
cc_rest_occ 5                  !only excitations from the lowest N orbitals
unrestricted  true
max_scf_cycles 200
$end
--------------------------------------------------------------
 ----------------------------------------------------------------
             Standard Nuclear Orientation (Angstroms)
    I     Atom           X                Y                Z
 ----------------------------------------------------------------
    1      C      -0.4940740000     3.0185140000    -0.2132420000
    2      F       0.7323090000     2.4311110000    -0.0590090000
    3      F      -1.1353500000     3.1026540000     0.7892920000
    4      F      -1.4328950000     0.9383250000     0.6632820000
    5      F      -1.0999180000     2.5393760000    -1.2551850000
 ----------------------------------------------------------------
 Nuclear Repulsion Energy =   190.4928989587 hartrees
 There are       21 alpha and       21 beta electrons
 Requested basis set is 6-31G(d)
 There are 20 shells and 75 basis functions

 Total QAlloc Memory Limit   3000 MB
 Mega-Array Size      1467 MB
 MEM_STATIC part      1500 MB

                       Distance Matrix (Angstroms)
             C (  1)   F (  2)   F (  3)   F (  4)
   F (  2)  1.368519
   F (  3)  1.193059  2.158410
   F (  4)  2.444763  2.727311  2.188317
   F (  5)  1.297022  2.190802  2.120949  2.520864
 
 tim1(1): 
  0.000000000000000E+000
 tim1(2): 
  0.000000000000000E+000
 A cutoff of  1.0D-11 yielded    201 shell pairs
 There are      2970 function pairs
 
 -------------------------------------------------------
 OpenMP Integral Computing Module                       
 Release: version 1.0, May 2013, Q-Chem Inc. Pittsburgh 
 -------------------------------------------------------
 Integral Job Info:
 Integral job number is                      11
 Integral operator is                         1
 short-range coefficients                     0
 long-range coefficients              100000000
 Omega coefficients                           0
 if combine SR and LR in K                    0
 Integral screening is                        0
 Integral computing path is                   2
 max size of driver memory is            800000
 size of driver memory is                593474
 size of scratch memory is              2260544
 max col of scratch BK array               1296
 max len of scratch array in speh3          155
 max len of scratch index in speh4           18
 max int batch size is                      520
 min int batch size is                       52
 fixed nKL is                                52
 max L of basis functions is                  2
 order of int derivative is                   0
 number of shells is                         20
 number of basis is                          75
 number of cartesian basis is                75
 number of contracted shell pairs           201
 number of primitive shell pairs           1022
 maxK2 (contraction) of shell pair           36
 max number of K2 of shell pair               1
 max number of CS2 of shell pair             34
 max number of PS2 of shell pair            204
 mem total for path MDJ                   21832
 -------------------------------------------------------
 Smallest overlap matrix eigenvalue = 2.00E-03

 Scale SEOQF with 1.000000e+00/1.000000e-01/1.000000e+00

 Standard Electronic Orientation quadrupole field applied
 Nucleus-field energy     =     0.0000000097 hartrees
 Guess MOs from SCF MO coefficient file
 Reading MOs from coefficient file
 Reading MOs from coefficient file
 An unrestricted Hartree-Fock SCF calculation will be
 performed using Pulay DIIS extrapolation
 SCF converges when DIIS error is below 1.0E-08
 using 8 threads for integral computing 
 ---------------------------------------
  Cycle       Energy         DIIS Error
 ---------------------------------------
    1    -435.3149220268      3.82E-06
    2    -435.3149220433      2.96E-06
    3    -435.3149220529      1.14E-06
    4    -435.3149220663      7.87E-07
    5    -435.3149220757      5.03E-07
    6    -435.3149220798      2.38E-07
    7    -435.3149220806      7.58E-08
    8    -435.3149220807      2.25E-08
    9    -435.3149220807      7.94E-09 Convergence criterion met
 ---------------------------------------
 <S^2> = 0.0000
 SCF time:  CPU 7.83 s  wall 2.41 s
 SCF   energy in the final basis set = -435.3149220807
 Total energy in the final basis set = -435.3149220807
================================================================================
|                                                                              |
|                                 A D C  M A N                                 |
|                                                                              |
 ------------------------------------------------------------------------------ 
|                                                                              |
| Components:                                                                  |
|                                                                              |
| - libvmm - 1.2-release                                                       |
|   Authors:                                                                   |
|   Evgeny Epifanovsky, Ilya Kaliman                                           |
|                                                                              |
| - libtensor - 2.4-trunk                                                      |
|   Authors:                                                                   |
|   Evgeny Epifanovsky, Michael Wormit, Dmitry Zuev, Sam Manzer                |
|                                                                              |
| - libwfa - 1.1-beta                                                          |
|   Authors:                                                                   |
|   Felix Plasser, Stefanie Baeppler, Benjamin Thomitzni, Michael Wormit       |
|                                                                              |
| - libadc - 1.0-beta                                                          |
|   Authors:                                                                   |
|   Michael Wormit, Philipp H. P. Harbach, Caroline Krauter, Dirk Rehn,        |
|   Matthias Schneider, Jan Wenzel                                             |
|                                                                              |
| - adcman - 2.4-beta                                                          |
|   Authors:                                                                   |
|   Michael Wormit, Philipp H. P. Harbach, Caroline Krauter, Dirk Rehn,        |
|   Jan Wenzel, Andreas Dreuw                                                  |
|                                                                              |
| Authors of earlier versions of ADCMAN:                                       |
| Andreas Dreuw, Jan Hendrik Starcke, Dirk Rehn, Michael Wormit                |
|                                                                              |
================================================================================

 
 Alpha MOs, Unrestricted
 -- Occupied --                  
-26.549 -26.500 -26.479 -26.012 -11.721  -1.923  -1.805  -1.748
  1 A     2 A     3 A     4 A     5 A     6 A     7 A     8 A                  
 -1.268  -1.094  -0.984  -0.975  -0.926  -0.827  -0.810  -0.801
  9 A    10 A    11 A    12 A    13 A    14 A    15 A    16 A                  
 -0.779  -0.772  -0.375  -0.375  -0.344
 17 A    18 A    19 A    20 A    21 A                                          
 -- Virtual --                   
 -0.102   0.281   0.327   0.370   0.547   0.569   0.643   0.756
 22 A    23 A    24 A    25 A    26 A    27 A    28 A    29 A                  
  1.196   1.225   1.238   1.261   1.283   1.397   1.476   1.506
 30 A    31 A    32 A    33 A    34 A    35 A    36 A    37 A                  
  1.522   1.535   1.543   1.552   1.636   1.713   1.795   1.858
 38 A    39 A    40 A    41 A    42 A    43 A    44 A    45 A                  
  1.881   1.944   1.968   1.978   2.006   2.038   2.049   2.126
 46 A    47 A    48 A    49 A    50 A    51 A    52 A    53 A                  
  2.180   2.190   2.252   2.285   2.374   2.381   2.391   2.540
 54 A    55 A    56 A    57 A    58 A    59 A    60 A    61 A                  
  2.596   2.719   2.773   2.853   3.002   3.076   3.321   3.352
 62 A    63 A    64 A    65 A    66 A    67 A    68 A    69 A                  
  3.503   4.202   4.465   4.532   4.810   6.148
 70 A    71 A    72 A    73 A    74 A    75 A                                  
 
 Beta MOs, Unrestricted
 -- Occupied --                  
-26.549 -26.500 -26.479 -26.012 -11.721  -1.923  -1.805  -1.748
  1 A     2 A     3 A     4 A     5 A     6 A     7 A     8 A                  
 -1.268  -1.094  -0.984  -0.975  -0.926  -0.827  -0.810  -0.801
  9 A    10 A    11 A    12 A    13 A    14 A    15 A    16 A                  
 -0.779  -0.772  -0.375  -0.375  -0.344
 17 A    18 A    19 A    20 A    21 A                                          
 -- Virtual --                   
 -0.102   0.281   0.327   0.370   0.547   0.569   0.643   0.756
 22 A    23 A    24 A    25 A    26 A    27 A    28 A    29 A                  
  1.196   1.225   1.238   1.261   1.283   1.397   1.476   1.506
 30 A    31 A    32 A    33 A    34 A    35 A    36 A    37 A                  
  1.522   1.535   1.543   1.552   1.636   1.713   1.795   1.858
 38 A    39 A    40 A    41 A    42 A    43 A    44 A    45 A                  
  1.881   1.944   1.968   1.978   2.006   2.038   2.049   2.126
 46 A    47 A    48 A    49 A    50 A    51 A    52 A    53 A                  
  2.180   2.190   2.252   2.285   2.374   2.381   2.391   2.540
 54 A    55 A    56 A    57 A    58 A    59 A    60 A    61 A                  
  2.596   2.719   2.773   2.853   3.002   3.076   3.321   3.352
 62 A    63 A    64 A    65 A    66 A    67 A    68 A    69 A                  
  3.503   4.202   4.465   4.532   4.810   6.148
 70 A    71 A    72 A    73 A    74 A    75 A                                  
 

--------------------------------------------------------------------------------
                                   HF Summary                                   
--------------------------------------------------------------------------------
  Energy:                                                 -435.3149220807 a.u.
  Dip. moment [a.u.]:                  [ -56.661346,  184.296901,    1.046697]
  Total dipole [Debye]:                                             490.082503
  <r^2> [a.u.]:                        [ 190.675788,  922.246608,  103.996157]
  Total <r^2> [a.u.]:                                              1216.918553
--------------------------------------------------------------------------------

--------------------------------------------------------------------------------
                                 MP(2) Summary                                  
--------------------------------------------------------------------------------
  Energy contribution:                                      -0.8503982492 a.u.
  Total energy:                                           -436.1653203299 a.u.
  Dip. moment [a.u.]:                  [ -56.050216,  185.780869,    0.460733]
  Total dipole [Debye]:                                             493.232333
  <r^2> [a.u.]:                        [ 188.584303,  935.014832,  103.595435]
  Total <r^2> [a.u.]:                                              1227.194570
--------------------------------------------------------------------------------
  Starting Davidson ... 
--------------------------------------------------------------------------------
   It NVec Conv  Avg. Norm  Max. Norm  Conv. states           Remark
--------------------------------------------------------------------------------
        20    0  2.049e-01  1.057e+00 10.9495 n n n n n n n n Guess.
    1   40    0  4.473e-02  4.728e-01 10.7716 n n n n n n n n 
    2   60    0  2.649e-02  4.329e-01 10.7701 n n n n n n n n 
    3   80    0  1.480e-02  2.136e-01 10.7700 n n n n n n n n 
    4  100    0  1.637e-02  3.042e-01 10.7700 n n n n n n n n 
    5   40    0  6.061e-03  1.030e-01 10.7700 n n n n n n n n Subspace collapsed.
    6   60    0  4.240e-03  6.155e-02 10.7700 n n n n n n n n 
    7   80    0  2.910e-03  4.477e-02 10.7700 n n n n n n n n 
    8  100    2  1.821e-03  3.046e-02 10.7700 y y n n n n n n 
    9   40    4  1.427e-03  2.633e-02 10.7700 y y y n n n y n Subspace collapsed.
   10   60    7  1.316e-03  2.450e-02 10.7700 y y y y n y y y 
   11   80    8  1.227e-03  2.318e-02 10.7700 y y y y y y y y 
   12  100   11  1.089e-03  2.109e-02 10.7700 y y y y y y y y 
   13   40   14  9.838e-04  1.948e-02 10.7700 y y y y y y y y Subspace collapsed.
   14   60   14  9.356e-04  1.856e-02 10.7700 y y y y y y y y 
   15   80   15  7.870e-04  1.560e-02 10.7700 y y y y y y y y 
   16  100   16  7.090e-04  1.404e-02 10.7700 y y y y y y y y 
   17   38   16  6.257e-04  1.245e-02 10.7700 y y y y y y y y Subspace collapsed.
   18   56   16  6.009e-04  1.196e-02 10.7700 y y y y y y y y 
   19   74   16  4.676e-04  9.321e-03 10.7700 y y y y y y y y 
   20   74   16  4.676e-04  9.321e-03 10.7700 y y y y y y y y 
   21   94   16  1.950e-04  3.870e-03 10.7700 y y y y y y y y 
   22  100   16  1.876e-04  3.726e-03 10.7700 y y y y y y y y 
   23   33   16  7.627e-05  1.505e-03 10.7700 y y y y y y y y Subspace collapsed.
   24   45   16  4.885e-05  9.550e-04 10.7700 y y y y y y y y 
   25   57   15  1.220e-03  2.439e-02 10.7700 y y y y y y y y 
   26   69   15  8.296e-04  1.659e-02 10.7700 y y y y y y y y 
   27   81   17  4.698e-04  9.395e-03 10.7700 y y y y y y y y 
   28   84   17  4.534e-04  9.068e-03 10.7700 y y y y y y y y 
   29   85   17  4.524e-04  9.048e-03 10.7700 y y y y y y y y 
   30   92   17  1.864e-04  3.727e-03 10.7700 y y y y y y y y 
   31   98   17  7.003e-05  1.391e-03 10.7700 y y y y y y y y 
   32   98   17  7.003e-05  1.391e-03 10.7700 y y y y y y y y 
   33   98   17  7.003e-05  1.391e-03 10.7700 y y y y y y y y 
   34  100   17  6.991e-05  1.388e-03 10.7700 y y y y y y y y 
   35   20   17  6.991e-05  1.388e-03 10.7700 y y y y y y y y Subspace collapsed.
   36   20   17  6.991e-05  1.388e-03 10.7700 y y y y y y y y 
   37   25   17  6.742e-05  1.337e-03 10.7700 y y y y y y y y 
   38   25   17  6.742e-05  1.337e-03 10.7700 y y y y y y y y 
   39   27   17  6.715e-05  1.332e-03 10.7700 y y y y y y y y 
   40   27   17  6.715e-05  1.332e-03 10.7700 y y y y y y y y 
   41   28   17  6.699e-05  1.328e-03 10.7700 y y y y y y y y 
   42   28   17  6.699e-05  1.328e-03 10.7700 y y y y y y y y 
   43   28   17  6.699e-05  1.328e-03 10.7700 y y y y y y y y 
   44   48   17  3.405e-05  6.795e-04 10.7700 y y y y y y y y 
   45   54   17  1.831e-05  3.659e-04 10.7700 y y y y y y y y 
   46   60   17  9.785e-06  1.955e-04 10.7700 y y y y y y y y 
   47   66   17  4.965e-06  9.920e-05 10.7700 y y y y y y y y 
   48   72   17  1.877e-06  3.749e-05 10.7700 y y y y y y y y 
   49   78   19  7.497e-07  1.494e-05 10.7700 y y y y y y y y 
   50   84   19  3.445e-07  6.868e-06 10.7700 y y y y y y y y 
   51   90   19  1.680e-07  3.353e-06 10.7700 y y y y y y y y 
   52   96   19  6.876e-08  1.372e-06 10.7700 y y y y y y y y 
   53  100   19  6.725e-08  1.344e-06 10.7700 y y y y y y y y 
   54   26   20  2.994e-08  5.982e-07 10.7700 y y y y y y y y Converged.
--------------------------------------------------------------------------------
  Davidson Summary: 
 ------------------------------------------------------------
  State  0: excitation energy =  10.7700 a.u.   (converged)
  State  1: excitation energy =  10.8301 a.u.   (converged)
  State  2: excitation energy =  11.0521 a.u.   (converged)
  State  3: excitation energy =  11.1127 a.u.   (converged)
  State  4: excitation energy =  11.1282 a.u.   (converged)
  State  5: excitation energy =  11.1901 a.u.   (converged)
  State  6: excitation energy =  11.2121 a.u.   (converged)
  State  7: excitation energy =  11.2760 a.u.   (converged)
  State  8: excitation energy =  11.4617 a.u.   (converged)
  State  9: excitation energy =  11.5105 a.u.   (converged)
  State 10: excitation energy =  11.5138 a.u.   (converged)
  State 11: excitation energy =  11.5193 a.u.   (converged)
  State 12: excitation energy =  11.5291 a.u.   (converged)
  State 13: excitation energy =  11.5460 a.u.   (converged)
  State 14: excitation energy =  11.6884 a.u.   (converged)
  State 15: excitation energy =  11.7093 a.u.   (converged)
  State 16: excitation energy =  11.8617 a.u.   (converged)
  State 17: excitation energy =  11.8627 a.u.   (converged)
  State 18: excitation energy =  11.8912 a.u.   (converged)
  State 19: excitation energy =  11.8912 a.u.   (converged)
 ------------------------------------------------------------


--------------------------------------------------------------------------------
                             Excited State Summary
--------------------------------------------------------------------------------

  Excited state  1 (A)                                             [converged]
  ----------------------------------------------------------------------------
  Term symbol:  2 (-) A                                     R^2 =  8.24707e-14

  Total energy:                                           -425.3953058864 a.u.
  Excitation energy:                                             293.066998 eV

  Osc. strength:                                                      0.000000
  Trans. dip. moment [a.u.]:           [  -0.000000,   -0.000000,    0.000000]
  <i|r^2|0> [a.u.]:                    [   0.000000,   -0.000000,   -0.000000]

  V1^2 = 0.9451, V2^2 = 0.0549

  Important amplitudes:
     core i     occ j      vir a      vir b          v   
    ------------------------------------------------------
     5 (A) B              22 (A) B                -0.6483
     5 (A) A              22 (A) A                 0.6483
    ------------------------------------------------------
  ----------------------------------------------------------------------------


  Excited state  2 (A)                                             [converged]
  ----------------------------------------------------------------------------
  Term symbol:  3 (-) A                                     R^2 =  7.17533e-14

  Total energy:                                           -425.3352291207 a.u.
  Excitation energy:                                             294.701770 eV

  Osc. strength:                                                      0.066276
  Trans. dip. moment [a.u.]:           [   0.021635,    0.089782,   -0.025506]
  <i|r^2|0> [a.u.]:                    [  -0.032360,    1.035552,    0.028239]

  V1^2 = 0.9370, V2^2 = 0.0630

  Important amplitudes:
     core i     occ j      vir a      vir b          v   
    ------------------------------------------------------
     5 (A) A              22 (A) A                 0.6600
     5 (A) B              22 (A) B                 0.6600
    ------------------------------------------------------
  ----------------------------------------------------------------------------


  Excited state  3 (A)                                             [converged]
  ----------------------------------------------------------------------------
  Term symbol:  4 (-) A                                     R^2 =  3.23297e-14

  Total energy:                                           -425.1132305052 a.u.
  Excitation energy:                                             300.742659 eV

  Osc. strength:                                                      0.000000
  Trans. dip. moment [a.u.]:           [  -0.000000,    0.000000,   -0.000000]
  <i|r^2|0> [a.u.]:                    [   0.000000,    0.000000,    0.000000]

  V1^2 = 0.9422, V2^2 = 0.0578

  Important amplitudes:
     core i     occ j      vir a      vir b          v   
    ------------------------------------------------------
     5 (A) A              23 (A) A                -0.6077
     5 (A) B              23 (A) B                 0.6077
    ------------------------------------------------------
  ----------------------------------------------------------------------------


  Excited state  4 (A)                                             [converged]
  ----------------------------------------------------------------------------
  Term symbol:  5 (-) A                                     R^2 =  5.85351e-14

  Total energy:                                           -425.0526167157 a.u.
  Excitation energy:                                             302.392044 eV

  Osc. strength:                                                      0.000000
  Trans. dip. moment [a.u.]:           [  -0.000000,    0.000000,   -0.000000]
  <i|r^2|0> [a.u.]:                    [   0.000000,    0.000000,    0.000000]

  V1^2 = 0.9372, V2^2 = 0.0628

  Important amplitudes:
     core i     occ j      vir a      vir b          v   
    ------------------------------------------------------
     5 (A) B              24 (A) B                 0.5649
     5 (A) A              24 (A) A                -0.5649
    ------------------------------------------------------
  ----------------------------------------------------------------------------


  Excited state  5 (A)                                             [converged]
  ----------------------------------------------------------------------------
  Term symbol:  6 (-) A                                     R^2 =  1.25314e-13

  Total energy:                                           -425.0371137739 a.u.
  Excitation energy:                                             302.813901 eV

  Osc. strength:                                                      0.101507
  Trans. dip. moment [a.u.]:           [   0.102828,   -0.047339,    0.029458]
  <i|r^2|0> [a.u.]:                    [  -0.186312,   -0.529391,   -0.011589]

  V1^2 = 0.9337, V2^2 = 0.0663

  Important amplitudes:
     core i     occ j      vir a      vir b          v   
    ------------------------------------------------------
     5 (A) B              23 (A) B                 0.6297
     5 (A) A              23 (A) A                 0.6297
    ------------------------------------------------------
  ----------------------------------------------------------------------------


  Excited state  6 (A)                                             [converged]
  ----------------------------------------------------------------------------
  Term symbol:  7 (-) A                                     R^2 =  1.21612e-13

  Total energy:                                           -424.9752503658 a.u.
  Excitation energy:                                             304.497290 eV

  Osc. strength:                                                      0.079262
  Trans. dip. moment [a.u.]:           [   0.033096,    0.062725,    0.074800]
  <i|r^2|0> [a.u.]:                    [  -0.075432,    0.698481,   -0.071548]

  V1^2 = 0.9255, V2^2 = 0.0745

  Important amplitudes:
     core i     occ j      vir a      vir b          v   
    ------------------------------------------------------
     5 (A) A              24 (A) A                 0.5971
     5 (A) B              24 (A) B                 0.5971
    ------------------------------------------------------
  ----------------------------------------------------------------------------


  Excited state  7 (A)                                             [converged]
  ----------------------------------------------------------------------------
  Term symbol:  8 (-) A                                     R^2 =  1.03116e-13

  Total energy:                                           -424.9532464522 a.u.
  Excitation energy:                                             305.096047 eV

  Osc. strength:                                                      0.000000
  Trans. dip. moment [a.u.]:           [  -0.000000,   -0.000000,   -0.000000]
  <i|r^2|0> [a.u.]:                    [   0.000000,   -0.000000,    0.000000]

  V1^2 = 0.9312, V2^2 = 0.0688

  Important amplitudes:
     core i     occ j      vir a      vir b          v   
    ------------------------------------------------------
     5 (A) B              25 (A) B                -0.5231
     5 (A) A              25 (A) A                 0.5231
    ------------------------------------------------------
  ----------------------------------------------------------------------------


  Excited state  8 (A)                                             [converged]
  ----------------------------------------------------------------------------
  Term symbol:  9 (-) A                                     R^2 =  1.48762e-13

  Total energy:                                           -424.8892757789 a.u.
  Excitation energy:                                             306.836777 eV

  Osc. strength:                                                      0.069443
  Trans. dip. moment [a.u.]:           [  -0.050692,   -0.016145,    0.080046]
  <i|r^2|0> [a.u.]:                    [   0.104401,   -0.168461,   -0.060182]

  V1^2 = 0.9180, V2^2 = 0.0820

  Important amplitudes:
     core i     occ j      vir a      vir b          v   
    ------------------------------------------------------
     5 (A) A              25 (A) A                 0.5732
     5 (A) B              25 (A) B                 0.5732
    ------------------------------------------------------
  ----------------------------------------------------------------------------


  Excited state  9 (A)                                             [converged]
  ----------------------------------------------------------------------------
  Term symbol:  10 (-) A                                    R^2 =  5.47374e-13

  Total energy:                                           -424.7035875203 a.u.
  Excitation energy:                                             311.889612 eV

  Osc. strength:                                                      0.000000
  Trans. dip. moment [a.u.]:           [   0.000000,    0.000000,   -0.000000]
  <i|r^2|0> [a.u.]:                    [  -0.000000,    0.000000,    0.000000]

  V1^2 = 0.9083, V2^2 = 0.0917

  Important amplitudes:
     core i     occ j      vir a      vir b          v   
    ------------------------------------------------------
     5 (A) A              26 (A) A                -0.5963
     5 (A) B              26 (A) B                 0.5963
    ------------------------------------------------------
  ----------------------------------------------------------------------------


  Excited state 10 (A)                                             [converged]
  ----------------------------------------------------------------------------
  Term symbol:  11 (-) A                                    R^2 =  6.99315e-13

  Total energy:                                           -424.6547745230 a.u.
  Excitation energy:                                             313.217881 eV

  Osc. strength:                                                      0.000000
  Trans. dip. moment [a.u.]:           [   0.000000,   -0.000000,    0.000000]
  <i|r^2|0> [a.u.]:                    [  -0.000000,   -0.000000,   -0.000000]

  V1^2 = 0.8825, V2^2 = 0.1175

  Important amplitudes:
     core i     occ j      vir a      vir b          v   
    ------------------------------------------------------
     5 (A) B              27 (A) B                -0.5390
     5 (A) A              27 (A) A                 0.5390
    ------------------------------------------------------
  ----------------------------------------------------------------------------


  Excited state 11 (A)                                             [converged]
  ----------------------------------------------------------------------------
  Term symbol:  12 (-) A                                    R^2 =  5.46524e-13

  Total energy:                                           -424.6515655970 a.u.
  Excitation energy:                                             313.305200 eV

  Osc. strength:                                                      0.026774
  Trans. dip. moment [a.u.]:           [   0.007628,    0.056331,   -0.016025]
  <i|r^2|0> [a.u.]:                    [   0.006577,    0.663508,    0.032293]

  V1^2 = 0.9082, V2^2 = 0.0918

  Important amplitudes:
     core i     occ j      vir a      vir b          v   
    ------------------------------------------------------
     5 (A) A              26 (A) A                -0.6220
     5 (A) B              26 (A) B                -0.6220
    ------------------------------------------------------
  ----------------------------------------------------------------------------


  Excited state 12 (A)                                             [converged]
  ----------------------------------------------------------------------------
  Term symbol:  13 (-) A                                    R^2 =  5.94578e-13

  Total energy:                                           -424.6460297623 a.u.
  Excitation energy:                                             313.455838 eV

  Osc. strength:                                                      0.000000
  Trans. dip. moment [a.u.]:           [  -0.000000,    0.000000,    0.000000]
  <i|r^2|0> [a.u.]:                    [   0.000000,    0.000000,   -0.000000]

  V1^2 = 0.8854, V2^2 = 0.1146

  Important amplitudes:
     core i     occ j      vir a      vir b          v   
    ------------------------------------------------------
     5 (A) B              28 (A) B                 0.4748
     5 (A) A              28 (A) A                -0.4748
    ------------------------------------------------------
  ----------------------------------------------------------------------------


  Excited state 13 (A)                                             [converged]
  ----------------------------------------------------------------------------
  Term symbol:  14 (-) A                                    R^2 =  3.80982e-13

  Total energy:                                           -424.6361945454 a.u.
  Excitation energy:                                             313.723468 eV

  Osc. strength:                                                      0.034421
  Trans. dip. moment [a.u.]:           [  -0.056631,   -0.001058,   -0.035638]
  <i|r^2|0> [a.u.]:                    [   0.106968,   -0.012384,    0.026864]

  V1^2 = 0.8859, V2^2 = 0.1141

  Important amplitudes:
     core i     occ j      vir a      vir b          v   
    ------------------------------------------------------
     5 (A) A              27 (A) A                 0.5698
     5 (A) B              27 (A) B                 0.5698
    ------------------------------------------------------
  ----------------------------------------------------------------------------


  Excited state 14 (A)                                             [converged]
  ----------------------------------------------------------------------------
  Term symbol:  15 (-) A                                    R^2 =  3.76463e-13

  Total energy:                                           -424.6193105729 a.u.
  Excitation energy:                                             314.182904 eV

  Osc. strength:                                                      0.050058
  Trans. dip. moment [a.u.]:           [  -0.038092,    0.026014,    0.066148]
  <i|r^2|0> [a.u.]:                    [   0.074802,    0.300958,   -0.051673]

  V1^2 = 0.8912, V2^2 = 0.1088

  Important amplitudes:
     core i     occ j      vir a      vir b          v   
    ------------------------------------------------------
     5 (A) A              28 (A) A                 0.5540
     5 (A) B              28 (A) B                 0.5540
    ------------------------------------------------------
  ----------------------------------------------------------------------------


  Excited state 15 (A)                                             [converged]
  ----------------------------------------------------------------------------
  Term symbol:  16 (-) A                                    R^2 =  2.36293e-10

  Total energy:                                           -424.4769603095 a.u.
  Excitation energy:                                             318.056452 eV

  Osc. strength:                                                      0.000000
  Trans. dip. moment [a.u.]:           [   0.000000,    0.000000,   -0.000000]
  <i|r^2|0> [a.u.]:                    [  -0.000000,    0.000000,    0.000000]

  V1^2 = 0.8591, V2^2 = 0.1409

  Important amplitudes:
     core i     occ j      vir a      vir b          v   
    ------------------------------------------------------
     5 (A) B              29 (A) B                 0.6025
     5 (A) A              29 (A) A                -0.6025
    ------------------------------------------------------
  ----------------------------------------------------------------------------


  Excited state 16 (A)                                             [converged]
  ----------------------------------------------------------------------------
  Term symbol:  17 (-) A                                    R^2 =  4.96424e-12

  Total energy:                                           -424.4559749117 a.u.
  Excitation energy:                                             318.627493 eV

  Osc. strength:                                                      0.014700
  Trans. dip. moment [a.u.]:           [  -0.013417,   -0.038018,    0.016053]
  <i|r^2|0> [a.u.]:                    [   0.038495,   -0.422250,   -0.000753]

  V1^2 = 0.8612, V2^2 = 0.1388

  Important amplitudes:
     core i     occ j      vir a      vir b          v   
    ------------------------------------------------------
     5 (A) A              29 (A) A                -0.6240
     5 (A) B              29 (A) B                -0.6240
    ------------------------------------------------------
  ----------------------------------------------------------------------------


  Excited state 17 (A)                                             [converged]
  ----------------------------------------------------------------------------
  Term symbol:  18 (-) A                                    R^2 =  1.05307e-08

  Total energy:                                           -424.3036379193 a.u.
  Excitation energy:                                             322.772794 eV

  Osc. strength:                                                      0.000000
  Trans. dip. moment [a.u.]:           [   0.000000,   -0.000000,    0.000000]
  <i|r^2|0> [a.u.]:                    [  -0.000000,   -0.000000,   -0.000000]

  V1^2 = 0.0065, V2^2 = 0.9935

  Important amplitudes:
     core i     occ j      vir a      vir b          v   
    ------------------------------------------------------
     5 (A) B   21 (A) A   22 (A) A   22 (A) B      0.4981
     5 (A) A   21 (A) B   22 (A) A   22 (A) B      0.4981
    ------------------------------------------------------
  ----------------------------------------------------------------------------


  Excited state 18 (A)                                             [converged]
  ----------------------------------------------------------------------------
  Term symbol:  19 (-) A                                    R^2 =  3.16172e-11

  Total energy:                                           -424.3026129005 a.u.
  Excitation energy:                                             322.800686 eV

  Osc. strength:                                                      0.000093
  Trans. dip. moment [a.u.]:           [   0.000030,    0.003427,   -0.000121]
  <i|r^2|0> [a.u.]:                    [   0.002322,    0.040012,    0.002443]

  V1^2 = 0.0079, V2^2 = 0.9921

  Important amplitudes:
     core i     occ j      vir a      vir b          v   
    ------------------------------------------------------
     5 (A) A   21 (A) B   22 (A) A   22 (A) B      0.4976
     5 (A) B   21 (A) A   22 (A) A   22 (A) B     -0.4976
    ------------------------------------------------------
  ----------------------------------------------------------------------------


  Excited state 19 (A)                                             [converged]
  ----------------------------------------------------------------------------
  Term symbol:  20 (-) A                                    R^2 =  5.98212e-07

  Total energy:                                           -424.2741075974 a.u.
  Excitation energy:                                             323.576355 eV

  Osc. strength:                                                      0.000000
  Trans. dip. moment [a.u.]:           [  -0.000000,    0.000000,    0.000000]
  <i|r^2|0> [a.u.]:                    [   0.000000,    0.000000,   -0.000000]

  V1^2 = 0.0000, V2^2 = 1.0000

  Important amplitudes:
     core i     occ j      vir a      vir b          v   
    ------------------------------------------------------
     5 (A) B   20 (A) A   22 (A) A   22 (A) B      0.5000
     5 (A) A   20 (A) B   22 (A) A   22 (A) B      0.5000
    ------------------------------------------------------
  ----------------------------------------------------------------------------


  Excited state 20 (A)                                             [converged]
  ----------------------------------------------------------------------------
  Term symbol:  21 (-) A                                    R^2 =  2.56431e-08

  Total energy:                                           -424.2741066887 a.u.
  Excitation energy:                                             323.576379 eV

  Osc. strength:                                                      0.000000
  Trans. dip. moment [a.u.]:           [  -0.000032,   -0.000100,   -0.000003]
  <i|r^2|0> [a.u.]:                    [   0.000006,   -0.001139,   -0.000104]

  V1^2 = 0.0000, V2^2 = 1.0000

  Important amplitudes:
     core i     occ j      vir a      vir b          v   
    ------------------------------------------------------
     5 (A) A   20 (A) B   22 (A) A   22 (A) B      0.5000
     5 (A) B   20 (A) A   22 (A) A   22 (A) B     -0.5000
    ------------------------------------------------------
  ----------------------------------------------------------------------------


--------------------------------------------------------------------------------
  Time of ADC calculation:  CPU 3060.34 s  wall 1850.24 s
================================================================================
 
 --------------------------------------------------------------
 
                    Orbital Energies (a.u.)
 --------------------------------------------------------------
 
 Alpha MOs
 -- Occupied --
-26.549 -26.500 -26.479 -26.012 -11.721  -1.923  -1.805  -1.748
 -1.268  -1.094  -0.984  -0.975  -0.926  -0.827  -0.810  -0.801
 -0.779  -0.772  -0.375  -0.375  -0.344
 -- Virtual --
 -0.102   0.281   0.327   0.370   0.547   0.569   0.643   0.756
  1.196   1.225   1.238   1.261   1.283   1.397   1.476   1.506
  1.522   1.535   1.543   1.552   1.636   1.713   1.795   1.858
  1.881   1.944   1.968   1.978   2.006   2.038   2.049   2.126
  2.180   2.190   2.252   2.285   2.374   2.381   2.391   2.540
  2.596   2.719   2.773   2.853   3.002   3.076   3.321   3.352
  3.503   4.202   4.465   4.532   4.810   6.148
 
 Beta MOs
 -- Occupied --
-26.549 -26.500 -26.479 -26.012 -11.721  -1.923  -1.805  -1.748
 -1.268  -1.094  -0.984  -0.975  -0.926  -0.827  -0.810  -0.801
 -0.779  -0.772  -0.375  -0.375  -0.344
 -- Virtual --
 -0.102   0.281   0.327   0.370   0.547   0.569   0.643   0.756
  1.196   1.225   1.238   1.261   1.283   1.397   1.476   1.506
  1.522   1.535   1.543   1.552   1.636   1.713   1.795   1.858
  1.881   1.944   1.968   1.978   2.006   2.038   2.049   2.126
  2.180   2.190   2.252   2.285   2.374   2.381   2.391   2.540
  2.596   2.719   2.773   2.853   3.002   3.076   3.321   3.352
  3.503   4.202   4.465   4.532   4.810   6.148
 --------------------------------------------------------------
 
          Ground-State Mulliken Net Atomic Charges

     Atom                 Charge (a.u.)    Spin (a.u.)
  --------------------------------------------------------
      1 C                     1.199827       0.000000
      2 F                    -0.236251       0.000000
      3 F                    -0.000160       0.000000
      4 F                    -0.795603       0.000000
      5 F                    -0.167814       0.000000
  --------------------------------------------------------
  Sum of atomic charges =     0.000000
  Sum of spin   charges =     0.000000

 -----------------------------------------------------------------
                    Cartesian Multipole Moments
 -----------------------------------------------------------------
    Charge (ESU x 10^10)
                 0.0000
    Dipole Moment (Debye)
         X       2.8664      Y       8.1105      Z      -2.8239
       Tot       9.0538
    Quadrupole Moments (Debye-Ang)
        XX     -29.4690     XY      -2.2589     YY      10.5864
        XZ       3.4091     YZ      -3.6628     ZZ     -24.3618
    Octopole Moments (Debye-Ang^2)
       XXX      59.0986    XXY     -57.8897    XYY      -0.8766
       YYY     -46.0762    XXZ      -4.6793    XYZ       2.9005
       YYZ      -7.4736    XZZ      18.0011    YZZ     -54.5936
       ZZZ      -1.1641
    Hexadecapole Moments (Debye-Ang^3)
      XXXX    -180.9647   XXXY     106.9459   XXYY    -168.8226
      XYYY      37.7837   YYYY    -478.3374   XXXZ      14.4630
      XXYZ       0.8720   XYYZ       4.4068   YYYZ     -10.6707
      XXZZ     -44.3407   XYZZ      34.0111   YYZZ    -157.0405
      XZZZ       8.9534   YZZZ      12.6043   ZZZZ     -86.9159
 -----------------------------------------------------------------
Archival summary:
1\1\tp-linux1\SP\HF\6-31G*\41\thomas\SatMar1808:44:252017SatMar1808:44:252017\0\\#,HF,6-31G*,\\0,1\F\C,1,1.19306\F,2,1.29702,1,116.746\F,2,1.36852,1,114.661,3,131.555,0\F,1,2.18832,2,87.4177,3,-59.3448,0\\HF=-435.314922\\@

 Total job time:  1854.75s(wall), 3072.09s(cpu) 
 Sat Mar 18 08:44:25 2017

        *************************************************************
        *                                                           *
        *  Thank you very much for using Q-Chem.  Have a nice day.  *
        *                                                           *
        *************************************************************


0 sent ACK to 0 
now end server 0 ... 
cleanup process ... done
