
Running Job 1 of 2 ddtraj4t2.inp
qchem ddtraj4t2.inp_8590.0 /scratch/qchem/qchem8590/ 1
/mnt/software/qchem/bin/mpi/mpirun_qchem -machinefile /mnt/software/qchem/bin/mpi/machines -np 1 /mnt/software/qchem/exe/qcprog.exe ddtraj4t2.inp_8590.0 /scratch/qchem/qchem8590/

Process 0 of 1 is on tp-linux1 - thread support 0
initial socket setup ...start
initial socket setup ...done 
now start server 0 ... 

cmd = ssh tp-linux1 /mnt/software/qchem/bin/get_hostid 435096508 > /scratch/qchem/qchem8590/lic.dat
                  Welcome to Q-Chem
     A Quantum Leap Into The Future Of Chemistry


 Q-Chem 4.3, Q-Chem, Inc., Pleasanton, CA (2015)

 Y. Shao,  Z. Gan,  E. Epifanovsky,  A. T. B. Gilbert,  M. Wormit,  
 J. Kussmann,  A. W. Lange,  A. Behn,  J. Deng,  X. Feng,  D. Ghosh,  
 M. Goldey,  P. R. Horn,  L. D. Jacobson,  I. Kaliman,  R. Z. Khaliullin,  
 T. Kus,  A. Landau,  J. Liu,  E. I. Proynov,  Y. M. Rhee,  R. M. Richard,  
 M. A. Rohrdanz,  R. P. Steele,  E. J. Sundstrom,  H. L. Woodcock III,  
 P. M. Zimmerman,  D. Zuev,  B. Albrecht,  E. Alguire,  B. Austin,  
 S. A. Baeppler,  G. J. O. Beran,  Y. A. Bernard,  E. Berquist,  
 K. Brandhorst,  K. B. Bravaya,  S. T. Brown,  D. Casanova,  C.-M. Chang,  
 Y. Chen,  S. H. Chien,  K. D. Closser,  D. L. Crittenden,  M. Diedenhofen,  
 R. A. DiStasio Jr.,  H. Do,  A. D. Dutoi,  R. G. Edgar,  P.-T. Fang,  
 S. Fatehi,  Q. Feng,  L. Fusti-Molnar,  A. Ghysels,  
 A. Golubeva-Zadorozhnaya,  J. Gomes,  A. Gunina,  M. W. D. Hanson-Heine,  
 P. H. P. Harbach,  A. W. Hauser,  E. G. Hohenstein,  Z. C. Holden,  K. Hui,  
 T.-C. Jagau,  H. Ji,  B. Kaduk,  K. Khistyaev,  Jaehoon Kim,  Jihan Kim,  
 R. A. King,  P. Klunzinger,  D. Kosenkov,  T. Kowalczyk,  C. M. Krauter,  
 K. U. Lao,  A. Laurent,  K. V. Lawler,  S. Lehtola,  S. V. Levchenko,  
 C. Y. Lin,  Y.-S. Lin,  F. Liu,  E. Livshits,  R. C. Lochan,  A. Luenser,  
 P. Manohar,  S. F. Manzer,  S.-P. Mao,  N. Mardirossian,  A. V. Marenich,  
 L. A. Martinez-Martinez,  S. A. Maurer,  N. J. Mayhall,  K. Nanda,  
 C. M. Oana,  R. Olivares-Amaya,  D. P. O'Neill,  J. A. Parkhill,  
 T. M. Perrine,  R. Peverati,  P. A. Pieniazek,  F. Plasser,  A. Prociuk,  
 D. R. Rehn,  E. Rosta,  N. J. Russ,  N. Sergueev,  S. M. Sharada,  
 S. Sharma,  D. W. Small,  A. Sodt,  T. Stauch,  T. Stein,  D. Stuck,  
 Y.-C. Su,  A. J. W. Thom,  T. Tsuchimochi,  L. Vogt,  O. Vydrov,  T. Wang,  
 M. A. Watson,  J. Wenzel,  A. White,  C. F. Williams,  V. Vanovschi,  
 S. Yeganeh,  S. R. Yost,  Z.-Q. You,  I. Y. Zhang,  X. Zhang,  Y. Zhao,  
 B. R. Brooks,  G. K. L. Chan,  D. M. Chipman,  C. J. Cramer,  
 W. A. Goddard III,  M. S. Gordon,  W. J. Hehre,  A. Klamt,  
 H. F. Schaefer III,  M. W. Schmidt,  C. D. Sherrill,  D. G. Truhlar,  
 A. Warshel,  X. Xu,  A. Aspuru-Guzik,  R. Baer,  A. T. Bell,  N. A. Besley,  
 J.-D. Chai,  A. Dreuw,  B. D. Dunietz,  T. R. Furlani,  S. R. Gwaltney,  
 C.-P. Hsu,  Y. Jung,  J. Kong,  D. S. Lambrecht,  W. Liang,  C. Ochsenfeld,  
 V. A. Rassolov,  L. V. Slipchenko,  J. E. Subotnik,  T. Van Voorhis,  
 J. M. Herbert,  A. I. Krylov,  P. M. W. Gill,  M. Head-Gordon

 Contributors to earlier versions of Q-Chem not listed above: 
 R. D. Adamson,  J. Baker,  E. F. C. Byrd,  A. K. Chakraborty,  C.-L. Cheng,  
 H. Dachsel,  R. J. Doerksen,  G. Hawkins,  A. Heyden,  S. Hirata,  
 G. Kedziora,  F. J. Keil,  C. Kelley,  P. P. Korambath,  W. Kurlancheek,  
 A. M. Lee,  M. S. Lee,  D. Liotard,  I. Lotan,  P. E. Maslen,  N. Nair,  
 D. Neuhauser,  R. Olson,  B. Peters,  J. Ritchie,  N. E. Schultz,  
 N. Shenvi,  A. C. Simmonett,  K. S. Thanthiriwatte,  Q. Wu,  W. Zhang

 Please cite Q-Chem as follows:
 Y. Shao et al., Mol. Phys. 113, 184-215 (2015)
 DOI: 10.1080/00268976.2014.952696

 Q-Chem 4.3.0 for Intel X86 Linux

 Parts of Q-Chem use Armadillo 5.200.1 (Boston Tea Smuggler).
 http://arma.sourceforge.net/

 Q-Chem begins on Sun Mar 19 18:41:29 2017  

Host: 
0

     Scratch files written to /scratch/qchem/qchem8590//
 Nov1815 1189b_ 19540  19532 5443   
 Parallel job on  1  processors
Processing $rem in /mnt/software/qchem/config/preferences.
 MEM_TOTAL  2000 

Checking the input file for inconsistencies... 	...done.

--------------------------------------------------------------
User input:
--------------------------------------------------------------
$comment
XAS calculation for the 2b valence excited for water using cvs-adc(2)-x + 6-311+G* basis set
job 1 - determination of HF orbitals
$end

$molecule
0 1
6  -0.700502  2.370711  -0.024299
9  0.599944  2.344203  0.003384
9  -1.130744  3.293715  0.784232
9  -1.12924  1.188778  0.423329
9  -1.129411  2.555923  -1.197544
$end

$rem
jobtype      sp
sym_ignore true
exchange     hf
basis        6-31G*
unrestricted true
$end

--------------------------------------------------------------
 ----------------------------------------------------------------
             Standard Nuclear Orientation (Angstroms)
    I     Atom           X                Y                Z
 ----------------------------------------------------------------
    1      C      -0.7005020000     2.3707110000    -0.0242990000
    2      F       0.5999440000     2.3442030000     0.0033840000
    3      F      -1.1307440000     3.2937150000     0.7842320000
    4      F      -1.1292400000     1.1887780000     0.4233290000
    5      F      -1.1294110000     2.5559230000    -1.1975440000
 ----------------------------------------------------------------
 Nuclear Repulsion Energy =   209.1841380495 hartrees
 There are       21 alpha and       21 beta electrons
 Requested basis set is 6-31G(d)
 There are 20 shells and 75 basis functions

 Total QAlloc Memory Limit   2000 MB
 Mega-Array Size        61 MB
 MEM_STATIC part        62 MB

                       Distance Matrix (Angstroms)
             C (  1)   F (  2)   F (  3)   F (  4)
   F (  2)  1.301011
   F (  3)  1.300295  2.122870
   F (  4)  1.334598  2.121659  2.135653
   F (  5)  1.262842  2.116063  2.114657  2.120452
 
 tim1(1): 
  0.000000000000000E+000
 tim1(2): 
  0.000000000000000E+000
 A cutoff of  1.0D-08 yielded    204 shell pairs
 There are      2979 function pairs
 
 -------------------------------------------------------
 OpenMP Integral Computing Module                       
 Release: version 1.0, May 2013, Q-Chem Inc. Pittsburgh 
 -------------------------------------------------------
 Integral Job Info:
 Integral job number is                      11
 Integral operator is                         1
 short-range coefficients                     0
 long-range coefficients              100000000
 Omega coefficients                           0
 if combine SR and LR in K                    0
 Integral screening is                        0
 Integral computing path is                   2
 max size of driver memory is            800000
 size of driver memory is                593474
 size of scratch memory is              2260544
 max col of scratch BK array               1296
 max len of scratch array in speh3          155
 max len of scratch index in speh4           18
 max int batch size is                      520
 min int batch size is                       52
 fixed nKL is                                52
 max L of basis functions is                  2
 order of int derivative is                   0
 number of shells is                         20
 number of basis is                          75
 number of cartesian basis is                75
 number of contracted shell pairs           204
 number of primitive shell pairs            992
 maxK2 (contraction) of shell pair           36
 max number of K2 of shell pair               1
 max number of CS2 of shell pair             26
 max number of PS2 of shell pair            180
 mem total for path MDJ                   21832
 -------------------------------------------------------
 Smallest overlap matrix eigenvalue = 1.74E-03

 Scale SEOQF with 1.000000e+00/1.000000e-01/1.000000e+00

 Standard Electronic Orientation quadrupole field applied
 Nucleus-field energy     =     0.0000000110 hartrees
 Guess from superposition of atomic densities
 Warning:  Energy on first SCF cycle will be non-variational
 An unrestricted Hartree-Fock SCF calculation will be
 performed using Pulay DIIS extrapolation
 SCF converges when DIIS error is below 1.0E-05
 using 8 threads for integral computing 
 ---------------------------------------
  Cycle       Energy         DIIS Error
 ---------------------------------------
    1    -436.6668517704      9.01E-02
    2    -435.4852640428      1.71E-02
    3    -435.6028902207      9.43E-03
    4    -435.6419443868      9.73E-04
    5    -435.6426389357      2.97E-04
    6    -435.6427302447      5.26E-05
    7    -435.6427338606      1.65E-05
    8    -435.6427340161      3.43E-06 Convergence criterion met
 ---------------------------------------
 <S^2> = 0.0000
 SCF time:  CPU 7.20 s  wall 1.91 s
 SCF   energy in the final basis set = -435.6427340161
 Total energy in the final basis set = -435.6427340161
 
 --------------------------------------------------------------
 
                    Orbital Energies (a.u.)
 --------------------------------------------------------------
 
 Alpha MOs
 -- Occupied --
-26.390 -26.375 -26.373 -26.358 -11.604  -1.819  -1.699  -1.679
 -1.659  -1.006  -0.897  -0.892  -0.887  -0.761  -0.759  -0.713
 -0.705  -0.696  -0.677  -0.670  -0.665
 -- Virtual --
  0.418   0.439   0.444   0.460   0.666   0.675   0.687   0.697
  1.289   1.297   1.298   1.302   1.307   1.410   1.569   1.571
  1.609   1.614   1.617   1.650   1.661   1.671   1.793   1.816
  1.841   2.086   2.087   2.093   2.117   2.122   2.201   2.224
  2.242   2.307   2.311   2.322   2.390   2.391   2.403   2.588
  2.897   2.942   2.998   3.167   3.168   3.374   3.430   3.434
  3.449   4.667   4.716   4.738   4.821   6.312
 
 Beta MOs
 -- Occupied --
-26.390 -26.375 -26.373 -26.358 -11.604  -1.819  -1.699  -1.679
 -1.659  -1.006  -0.897  -0.892  -0.887  -0.761  -0.759  -0.713
 -0.705  -0.696  -0.677  -0.670  -0.665
 -- Virtual --
  0.418   0.439   0.444   0.460   0.666   0.675   0.687   0.697
  1.289   1.297   1.298   1.302   1.307   1.410   1.569   1.571
  1.609   1.614   1.617   1.650   1.661   1.671   1.793   1.816
  1.841   2.086   2.087   2.093   2.117   2.122   2.201   2.224
  2.242   2.307   2.311   2.322   2.390   2.391   2.403   2.588
  2.897   2.942   2.998   3.167   3.168   3.374   3.430   3.434
  3.449   4.667   4.716   4.738   4.821   6.312
 --------------------------------------------------------------
 
          Ground-State Mulliken Net Atomic Charges

     Atom                 Charge (a.u.)    Spin (a.u.)
  --------------------------------------------------------
      1 C                     1.304903       0.000000
      2 F                    -0.328865       0.000000
      3 F                    -0.327318       0.000000
      4 F                    -0.361784       0.000000
      5 F                    -0.286935       0.000000
  --------------------------------------------------------
  Sum of atomic charges =     0.000000
  Sum of spin   charges =     0.000000

 -----------------------------------------------------------------
                    Cartesian Multipole Moments
 -----------------------------------------------------------------
    Charge (ESU x 10^10)
                 0.0000
    Dipole Moment (Debye)
         X      -0.0270      Y       0.2739      Z      -0.3170
       Tot       0.4198
    Quadrupole Moments (Debye-Ang)
        XX     -24.8927     XY      -0.3295     YY     -23.8210
        XZ       0.3144     YZ      -0.7176     ZZ     -24.7280
    Octopole Moments (Debye-Ang^2)
       XXX      50.6421    XXY     -58.1784    XYY      16.9595
       YYY    -171.5833    XXZ      -0.3530    XYZ       0.7012
       YYZ      -2.6573    XZZ      17.9064    YZZ     -58.5039
       ZZZ       0.5608
    Hexadecapole Moments (Debye-Ang^3)
      XXXX    -145.4736   XXXY     118.5280   XXYY    -175.2501
      XYYY     123.9459   YYYY    -887.8702   XXXZ       0.5947
      XXYZ      -0.7772   XYYZ       2.3719   YYYZ     -10.9342
      XXZZ     -38.3626   XYZZ      42.3413   YYZZ    -164.1101
      XZZZ      -0.2350   YZZZ       1.3709   ZZZZ     -75.7355
 -----------------------------------------------------------------
Archival summary:
1\1\tp-linux1\SP\HF\6-31G*\41\thomas\SunMar1918:41:312017SunMar1918:41:312017\0\\#,HF,6-31G*,\\0,1\C\F,1,1.26284\F,1,1.30029,2,111.174\F,1,1.30101,2,111.238,3,122.174,0\F,1,1.3346,2,109.414,3,-119.558,0\\HF=-435.642734\\@

 Total job time:  2.24s(wall), 8.93s(cpu) 
 Sun Mar 19 18:41:31 2017

        *************************************************************
        *                                                           *
        *  Thank you very much for using Q-Chem.  Have a nice day.  *
        *                                                           *
        *************************************************************


0 sent ACK to 0 
now end server 0 ... 
cleanup process ... done

Running Job 2 of 2 ddtraj4t2.inp
qchem ddtraj4t2.inp_8590.1 /scratch/qchem/qchem8590/ 1
/mnt/software/qchem/bin/mpi/mpirun_qchem -machinefile /mnt/software/qchem/bin/mpi/machines -np 1 /mnt/software/qchem/exe/qcprog.exe ddtraj4t2.inp_8590.1 /scratch/qchem/qchem8590/

Process 0 of 1 is on tp-linux1 - thread support 0
initial socket setup ...start
initial socket setup ...done 
now start server 0 ... 

cmd = ssh tp-linux1 /mnt/software/qchem/bin/get_hostid 2128167720 > /scratch/qchem/qchem8590/lic.dat
                  Welcome to Q-Chem
     A Quantum Leap Into The Future Of Chemistry


 Q-Chem 4.3, Q-Chem, Inc., Pleasanton, CA (2015)

 Y. Shao,  Z. Gan,  E. Epifanovsky,  A. T. B. Gilbert,  M. Wormit,  
 J. Kussmann,  A. W. Lange,  A. Behn,  J. Deng,  X. Feng,  D. Ghosh,  
 M. Goldey,  P. R. Horn,  L. D. Jacobson,  I. Kaliman,  R. Z. Khaliullin,  
 T. Kus,  A. Landau,  J. Liu,  E. I. Proynov,  Y. M. Rhee,  R. M. Richard,  
 M. A. Rohrdanz,  R. P. Steele,  E. J. Sundstrom,  H. L. Woodcock III,  
 P. M. Zimmerman,  D. Zuev,  B. Albrecht,  E. Alguire,  B. Austin,  
 S. A. Baeppler,  G. J. O. Beran,  Y. A. Bernard,  E. Berquist,  
 K. Brandhorst,  K. B. Bravaya,  S. T. Brown,  D. Casanova,  C.-M. Chang,  
 Y. Chen,  S. H. Chien,  K. D. Closser,  D. L. Crittenden,  M. Diedenhofen,  
 R. A. DiStasio Jr.,  H. Do,  A. D. Dutoi,  R. G. Edgar,  P.-T. Fang,  
 S. Fatehi,  Q. Feng,  L. Fusti-Molnar,  A. Ghysels,  
 A. Golubeva-Zadorozhnaya,  J. Gomes,  A. Gunina,  M. W. D. Hanson-Heine,  
 P. H. P. Harbach,  A. W. Hauser,  E. G. Hohenstein,  Z. C. Holden,  K. Hui,  
 T.-C. Jagau,  H. Ji,  B. Kaduk,  K. Khistyaev,  Jaehoon Kim,  Jihan Kim,  
 R. A. King,  P. Klunzinger,  D. Kosenkov,  T. Kowalczyk,  C. M. Krauter,  
 K. U. Lao,  A. Laurent,  K. V. Lawler,  S. Lehtola,  S. V. Levchenko,  
 C. Y. Lin,  Y.-S. Lin,  F. Liu,  E. Livshits,  R. C. Lochan,  A. Luenser,  
 P. Manohar,  S. F. Manzer,  S.-P. Mao,  N. Mardirossian,  A. V. Marenich,  
 L. A. Martinez-Martinez,  S. A. Maurer,  N. J. Mayhall,  K. Nanda,  
 C. M. Oana,  R. Olivares-Amaya,  D. P. O'Neill,  J. A. Parkhill,  
 T. M. Perrine,  R. Peverati,  P. A. Pieniazek,  F. Plasser,  A. Prociuk,  
 D. R. Rehn,  E. Rosta,  N. J. Russ,  N. Sergueev,  S. M. Sharada,  
 S. Sharma,  D. W. Small,  A. Sodt,  T. Stauch,  T. Stein,  D. Stuck,  
 Y.-C. Su,  A. J. W. Thom,  T. Tsuchimochi,  L. Vogt,  O. Vydrov,  T. Wang,  
 M. A. Watson,  J. Wenzel,  A. White,  C. F. Williams,  V. Vanovschi,  
 S. Yeganeh,  S. R. Yost,  Z.-Q. You,  I. Y. Zhang,  X. Zhang,  Y. Zhao,  
 B. R. Brooks,  G. K. L. Chan,  D. M. Chipman,  C. J. Cramer,  
 W. A. Goddard III,  M. S. Gordon,  W. J. Hehre,  A. Klamt,  
 H. F. Schaefer III,  M. W. Schmidt,  C. D. Sherrill,  D. G. Truhlar,  
 A. Warshel,  X. Xu,  A. Aspuru-Guzik,  R. Baer,  A. T. Bell,  N. A. Besley,  
 J.-D. Chai,  A. Dreuw,  B. D. Dunietz,  T. R. Furlani,  S. R. Gwaltney,  
 C.-P. Hsu,  Y. Jung,  J. Kong,  D. S. Lambrecht,  W. Liang,  C. Ochsenfeld,  
 V. A. Rassolov,  L. V. Slipchenko,  J. E. Subotnik,  T. Van Voorhis,  
 J. M. Herbert,  A. I. Krylov,  P. M. W. Gill,  M. Head-Gordon

 Contributors to earlier versions of Q-Chem not listed above: 
 R. D. Adamson,  J. Baker,  E. F. C. Byrd,  A. K. Chakraborty,  C.-L. Cheng,  
 H. Dachsel,  R. J. Doerksen,  G. Hawkins,  A. Heyden,  S. Hirata,  
 G. Kedziora,  F. J. Keil,  C. Kelley,  P. P. Korambath,  W. Kurlancheek,  
 A. M. Lee,  M. S. Lee,  D. Liotard,  I. Lotan,  P. E. Maslen,  N. Nair,  
 D. Neuhauser,  R. Olson,  B. Peters,  J. Ritchie,  N. E. Schultz,  
 N. Shenvi,  A. C. Simmonett,  K. S. Thanthiriwatte,  Q. Wu,  W. Zhang

 Please cite Q-Chem as follows:
 Y. Shao et al., Mol. Phys. 113, 184-215 (2015)
 DOI: 10.1080/00268976.2014.952696

 Q-Chem 4.3.0 for Intel X86 Linux

 Parts of Q-Chem use Armadillo 5.200.1 (Boston Tea Smuggler).
 http://arma.sourceforge.net/

 Q-Chem begins on Sun Mar 19 18:41:34 2017  

Host: 
0

     Scratch files written to /scratch/qchem/qchem8590//
 Nov1815 1189b_ 19540  19532 5443   
 Parallel job on  1  processors
Processing $rem in /mnt/software/qchem/config/preferences.
 MEM_TOTAL  2000 

Checking the input file for inconsistencies... 	...done.

--------------------------------------------------------------
User input:
--------------------------------------------------------------

$comment
job3 - cvs-adc(2) calculation
$end

$molecule
read
$end

$rem
mem_total 3000
mem_static 1500
sym_ignore true
scf_guess read
method cvs-adc(2)
basis 6-31G*
ee_singlets 20
cc_rest_occ 5                  !only excitations from the lowest N orbitals
unrestricted  true
max_scf_cycles 200
$end
--------------------------------------------------------------
 ----------------------------------------------------------------
             Standard Nuclear Orientation (Angstroms)
    I     Atom           X                Y                Z
 ----------------------------------------------------------------
    1      C      -0.7005020000     2.3707110000    -0.0242990000
    2      F       0.5999440000     2.3442030000     0.0033840000
    3      F      -1.1307440000     3.2937150000     0.7842320000
    4      F      -1.1292400000     1.1887780000     0.4233290000
    5      F      -1.1294110000     2.5559230000    -1.1975440000
 ----------------------------------------------------------------
 Nuclear Repulsion Energy =   209.1841380495 hartrees
 There are       21 alpha and       21 beta electrons
 Requested basis set is 6-31G(d)
 There are 20 shells and 75 basis functions

 Total QAlloc Memory Limit   3000 MB
 Mega-Array Size      1467 MB
 MEM_STATIC part      1500 MB

                       Distance Matrix (Angstroms)
             C (  1)   F (  2)   F (  3)   F (  4)
   F (  2)  1.301011
   F (  3)  1.300295  2.122870
   F (  4)  1.334598  2.121659  2.135653
   F (  5)  1.262842  2.116063  2.114657  2.120452
 
 tim1(1): 
  0.000000000000000E+000
 tim1(2): 
  0.000000000000000E+000
 A cutoff of  1.0D-11 yielded    204 shell pairs
 There are      2979 function pairs
 
 -------------------------------------------------------
 OpenMP Integral Computing Module                       
 Release: version 1.0, May 2013, Q-Chem Inc. Pittsburgh 
 -------------------------------------------------------
 Integral Job Info:
 Integral job number is                      11
 Integral operator is                         1
 short-range coefficients                     0
 long-range coefficients              100000000
 Omega coefficients                           0
 if combine SR and LR in K                    0
 Integral screening is                        0
 Integral computing path is                   2
 max size of driver memory is            800000
 size of driver memory is                593474
 size of scratch memory is              2260544
 max col of scratch BK array               1296
 max len of scratch array in speh3          155
 max len of scratch index in speh4           18
 max int batch size is                      520
 min int batch size is                       52
 fixed nKL is                                52
 max L of basis functions is                  2
 order of int derivative is                   0
 number of shells is                         20
 number of basis is                          75
 number of cartesian basis is                75
 number of contracted shell pairs           204
 number of primitive shell pairs           1074
 maxK2 (contraction) of shell pair           36
 max number of K2 of shell pair               1
 max number of CS2 of shell pair             37
 max number of PS2 of shell pair            222
 mem total for path MDJ                   21832
 -------------------------------------------------------
 Smallest overlap matrix eigenvalue = 1.74E-03

 Scale SEOQF with 1.000000e+00/1.000000e-01/1.000000e+00

 Standard Electronic Orientation quadrupole field applied
 Nucleus-field energy     =     0.0000000110 hartrees
 Guess MOs from SCF MO coefficient file
 Reading MOs from coefficient file
 Reading MOs from coefficient file
 An unrestricted Hartree-Fock SCF calculation will be
 performed using Pulay DIIS extrapolation
 SCF converges when DIIS error is below 1.0E-08
 using 8 threads for integral computing 
 ---------------------------------------
  Cycle       Energy         DIIS Error
 ---------------------------------------
    1    -435.6427340395      5.73E-07
    2    -435.6427340395      2.42E-07
    3    -435.6427340396      1.09E-07
    4    -435.6427340396      1.34E-08
    5    -435.6427340396      2.65E-09 Convergence criterion met
 ---------------------------------------
 <S^2> = 0.0000
 SCF time:  CPU 4.20 s  wall 1.36 s
 SCF   energy in the final basis set = -435.6427340396
 Total energy in the final basis set = -435.6427340396
================================================================================
|                                                                              |
|                                 A D C  M A N                                 |
|                                                                              |
 ------------------------------------------------------------------------------ 
|                                                                              |
| Components:                                                                  |
|                                                                              |
| - libvmm - 1.2-release                                                       |
|   Authors:                                                                   |
|   Evgeny Epifanovsky, Ilya Kaliman                                           |
|                                                                              |
| - libtensor - 2.4-trunk                                                      |
|   Authors:                                                                   |
|   Evgeny Epifanovsky, Michael Wormit, Dmitry Zuev, Sam Manzer                |
|                                                                              |
| - libwfa - 1.1-beta                                                          |
|   Authors:                                                                   |
|   Felix Plasser, Stefanie Baeppler, Benjamin Thomitzni, Michael Wormit       |
|                                                                              |
| - libadc - 1.0-beta                                                          |
|   Authors:                                                                   |
|   Michael Wormit, Philipp H. P. Harbach, Caroline Krauter, Dirk Rehn,        |
|   Matthias Schneider, Jan Wenzel                                             |
|                                                                              |
| - adcman - 2.4-beta                                                          |
|   Authors:                                                                   |
|   Michael Wormit, Philipp H. P. Harbach, Caroline Krauter, Dirk Rehn,        |
|   Jan Wenzel, Andreas Dreuw                                                  |
|                                                                              |
| Authors of earlier versions of ADCMAN:                                       |
| Andreas Dreuw, Jan Hendrik Starcke, Dirk Rehn, Michael Wormit                |
|                                                                              |
================================================================================

 
 Alpha MOs, Unrestricted
 -- Occupied --                  
-26.390 -26.375 -26.373 -26.358 -11.604  -1.819  -1.699  -1.679
  1 A     2 A     3 A     4 A     5 A     6 A     7 A     8 A                  
 -1.659  -1.006  -0.897  -0.892  -0.887  -0.761  -0.759  -0.713
  9 A    10 A    11 A    12 A    13 A    14 A    15 A    16 A                  
 -0.705  -0.695  -0.677  -0.670  -0.665
 17 A    18 A    19 A    20 A    21 A                                          
 -- Virtual --                   
  0.418   0.439   0.444   0.460   0.666   0.675   0.687   0.697
 22 A    23 A    24 A    25 A    26 A    27 A    28 A    29 A                  
  1.289   1.297   1.298   1.302   1.307   1.410   1.569   1.571
 30 A    31 A    32 A    33 A    34 A    35 A    36 A    37 A                  
  1.609   1.614   1.617   1.650   1.661   1.671   1.793   1.816
 38 A    39 A    40 A    41 A    42 A    43 A    44 A    45 A                  
  1.841   2.086   2.087   2.093   2.117   2.122   2.201   2.224
 46 A    47 A    48 A    49 A    50 A    51 A    52 A    53 A                  
  2.242   2.307   2.311   2.322   2.390   2.391   2.403   2.588
 54 A    55 A    56 A    57 A    58 A    59 A    60 A    61 A                  
  2.897   2.942   2.998   3.167   3.168   3.374   3.430   3.434
 62 A    63 A    64 A    65 A    66 A    67 A    68 A    69 A                  
  3.449   4.667   4.716   4.738   4.821   6.312
 70 A    71 A    72 A    73 A    74 A    75 A                                  
 
 Beta MOs, Unrestricted
 -- Occupied --                  
-26.390 -26.375 -26.373 -26.358 -11.604  -1.819  -1.699  -1.679
  1 A     2 A     3 A     4 A     5 A     6 A     7 A     8 A                  
 -1.659  -1.006  -0.897  -0.892  -0.887  -0.761  -0.759  -0.713
  9 A    10 A    11 A    12 A    13 A    14 A    15 A    16 A                  
 -0.705  -0.695  -0.677  -0.670  -0.665
 17 A    18 A    19 A    20 A    21 A                                          
 -- Virtual --                   
  0.418   0.439   0.444   0.460   0.666   0.675   0.687   0.697
 22 A    23 A    24 A    25 A    26 A    27 A    28 A    29 A                  
  1.289   1.297   1.298   1.302   1.307   1.410   1.569   1.571
 30 A    31 A    32 A    33 A    34 A    35 A    36 A    37 A                  
  1.609   1.614   1.617   1.650   1.661   1.671   1.793   1.816
 38 A    39 A    40 A    41 A    42 A    43 A    44 A    45 A                  
  1.841   2.086   2.087   2.093   2.117   2.122   2.201   2.224
 46 A    47 A    48 A    49 A    50 A    51 A    52 A    53 A                  
  2.242   2.307   2.311   2.322   2.390   2.391   2.403   2.588
 54 A    55 A    56 A    57 A    58 A    59 A    60 A    61 A                  
  2.897   2.942   2.998   3.167   3.168   3.374   3.430   3.434
 62 A    63 A    64 A    65 A    66 A    67 A    68 A    69 A                  
  3.449   4.667   4.716   4.738   4.821   6.312
 70 A    71 A    72 A    73 A    74 A    75 A                                  
 

--------------------------------------------------------------------------------
                                   HF Summary                                   
--------------------------------------------------------------------------------
  Energy:                                                 -435.6427340396 a.u.
  Dip. moment [a.u.]:                  [ -55.373603,  186.347425,    0.077123]
  Total dipole [Debye]:                                             494.117207
  <r^2> [a.u.]:                        [ 163.662377,  918.795923,   90.015551]
  Total <r^2> [a.u.]:                                              1172.473851
--------------------------------------------------------------------------------

--------------------------------------------------------------------------------
                                 MP(2) Summary                                  
--------------------------------------------------------------------------------
  Energy contribution:                                      -0.7979431693 a.u.
  Total energy:                                           -436.4406772089 a.u.
  Dip. moment [a.u.]:                  [ -55.374710,  186.358075,    0.065815]
  Total dipole [Debye]:                                             494.143946
  <r^2> [a.u.]:                        [ 163.610826,  918.823702,   89.965923]
  Total <r^2> [a.u.]:                                              1172.400452
--------------------------------------------------------------------------------
  Starting Davidson ... 
--------------------------------------------------------------------------------
   It NVec Conv  Avg. Norm  Max. Norm  Conv. states           Remark
--------------------------------------------------------------------------------
        20    0  2.113e-01  1.043e+00 11.2506 n n n n n n n n Guess.
    1   40    0  4.635e-02  5.031e-01 11.0613 n n n n n n n n 
    2   60    0  7.128e-03  6.263e-02 11.0594 n n n n n n n n 
    3   80    0  3.598e-03  3.968e-02 11.0593 n n n n n n n n 
    4  100    0  2.512e-03  3.174e-02 11.0593 n n n n n n n n 
    5   40    0  1.367e-03  1.784e-02 11.0593 n n n n n n n n Subspace collapsed.
    6   60    0  1.446e-03  1.957e-02 11.0593 n n n n n n n n 
    7   80    0  1.455e-03  1.745e-02 11.0593 n n n n n n n n 
    8  100    2  7.321e-04  8.748e-03 11.0593 y y n n n n n n 
    9   40    7  3.298e-04  3.853e-03 11.0593 y y y y y y y n Subspace collapsed.
   10   60    8  1.900e-04  2.508e-03 11.0593 y y y y y y y y 
   11   80    9  8.203e-05  1.085e-03 11.0593 y y y y y y y y 
   12  100   12  8.757e-05  1.094e-03 11.0593 y y y y y y y y 
   13   40   16  5.509e-05  7.316e-04 11.0593 y y y y y y y y Subspace collapsed.
   14   60   16  7.795e-05  9.272e-04 11.0593 y y y y y y y y 
   15   80   16  5.872e-05  7.390e-04 11.0593 y y y y y y y y 
   16  100   16  4.545e-05  5.887e-04 11.0593 y y y y y y y y 
  Excited states of irrep A ... FAILED!
  [ERROR] libvmm::out_of_memory

 Q-Chem fatal error occurred in module /home/scratch/svnadmin/1189b_zgan/qchem/adcman/adcman_main.C, line 30:

 libvmm::out_of_memory

p0_8804:  p4_error: interrupt SIGx: 6
