
Running Job 1 of 2 ddtraj2t23.inp
qchem ddtraj2t23.inp_6593.0 /scratch/qchem/qchem6593/ 1
/mnt/software/qchem/bin/mpi/mpirun_qchem -machinefile /mnt/software/qchem/bin/mpi/machines -np 1 /mnt/software/qchem/exe/qcprog.exe ddtraj2t23.inp_6593.0 /scratch/qchem/qchem6593/

Process 0 of 1 is on tp-linux1 - thread support 0
initial socket setup ...start
initial socket setup ...done 
now start server 0 ... 

cmd = ssh tp-linux1 /mnt/software/qchem/bin/get_hostid 119062687 > /scratch/qchem/qchem6593/lic.dat
                  Welcome to Q-Chem
     A Quantum Leap Into The Future Of Chemistry


 Q-Chem 4.3, Q-Chem, Inc., Pleasanton, CA (2015)

 Y. Shao,  Z. Gan,  E. Epifanovsky,  A. T. B. Gilbert,  M. Wormit,  
 J. Kussmann,  A. W. Lange,  A. Behn,  J. Deng,  X. Feng,  D. Ghosh,  
 M. Goldey,  P. R. Horn,  L. D. Jacobson,  I. Kaliman,  R. Z. Khaliullin,  
 T. Kus,  A. Landau,  J. Liu,  E. I. Proynov,  Y. M. Rhee,  R. M. Richard,  
 M. A. Rohrdanz,  R. P. Steele,  E. J. Sundstrom,  H. L. Woodcock III,  
 P. M. Zimmerman,  D. Zuev,  B. Albrecht,  E. Alguire,  B. Austin,  
 S. A. Baeppler,  G. J. O. Beran,  Y. A. Bernard,  E. Berquist,  
 K. Brandhorst,  K. B. Bravaya,  S. T. Brown,  D. Casanova,  C.-M. Chang,  
 Y. Chen,  S. H. Chien,  K. D. Closser,  D. L. Crittenden,  M. Diedenhofen,  
 R. A. DiStasio Jr.,  H. Do,  A. D. Dutoi,  R. G. Edgar,  P.-T. Fang,  
 S. Fatehi,  Q. Feng,  L. Fusti-Molnar,  A. Ghysels,  
 A. Golubeva-Zadorozhnaya,  J. Gomes,  A. Gunina,  M. W. D. Hanson-Heine,  
 P. H. P. Harbach,  A. W. Hauser,  E. G. Hohenstein,  Z. C. Holden,  K. Hui,  
 T.-C. Jagau,  H. Ji,  B. Kaduk,  K. Khistyaev,  Jaehoon Kim,  Jihan Kim,  
 R. A. King,  P. Klunzinger,  D. Kosenkov,  T. Kowalczyk,  C. M. Krauter,  
 K. U. Lao,  A. Laurent,  K. V. Lawler,  S. Lehtola,  S. V. Levchenko,  
 C. Y. Lin,  Y.-S. Lin,  F. Liu,  E. Livshits,  R. C. Lochan,  A. Luenser,  
 P. Manohar,  S. F. Manzer,  S.-P. Mao,  N. Mardirossian,  A. V. Marenich,  
 L. A. Martinez-Martinez,  S. A. Maurer,  N. J. Mayhall,  K. Nanda,  
 C. M. Oana,  R. Olivares-Amaya,  D. P. O'Neill,  J. A. Parkhill,  
 T. M. Perrine,  R. Peverati,  P. A. Pieniazek,  F. Plasser,  A. Prociuk,  
 D. R. Rehn,  E. Rosta,  N. J. Russ,  N. Sergueev,  S. M. Sharada,  
 S. Sharma,  D. W. Small,  A. Sodt,  T. Stauch,  T. Stein,  D. Stuck,  
 Y.-C. Su,  A. J. W. Thom,  T. Tsuchimochi,  L. Vogt,  O. Vydrov,  T. Wang,  
 M. A. Watson,  J. Wenzel,  A. White,  C. F. Williams,  V. Vanovschi,  
 S. Yeganeh,  S. R. Yost,  Z.-Q. You,  I. Y. Zhang,  X. Zhang,  Y. Zhao,  
 B. R. Brooks,  G. K. L. Chan,  D. M. Chipman,  C. J. Cramer,  
 W. A. Goddard III,  M. S. Gordon,  W. J. Hehre,  A. Klamt,  
 H. F. Schaefer III,  M. W. Schmidt,  C. D. Sherrill,  D. G. Truhlar,  
 A. Warshel,  X. Xu,  A. Aspuru-Guzik,  R. Baer,  A. T. Bell,  N. A. Besley,  
 J.-D. Chai,  A. Dreuw,  B. D. Dunietz,  T. R. Furlani,  S. R. Gwaltney,  
 C.-P. Hsu,  Y. Jung,  J. Kong,  D. S. Lambrecht,  W. Liang,  C. Ochsenfeld,  
 V. A. Rassolov,  L. V. Slipchenko,  J. E. Subotnik,  T. Van Voorhis,  
 J. M. Herbert,  A. I. Krylov,  P. M. W. Gill,  M. Head-Gordon

 Contributors to earlier versions of Q-Chem not listed above: 
 R. D. Adamson,  J. Baker,  E. F. C. Byrd,  A. K. Chakraborty,  C.-L. Cheng,  
 H. Dachsel,  R. J. Doerksen,  G. Hawkins,  A. Heyden,  S. Hirata,  
 G. Kedziora,  F. J. Keil,  C. Kelley,  P. P. Korambath,  W. Kurlancheek,  
 A. M. Lee,  M. S. Lee,  D. Liotard,  I. Lotan,  P. E. Maslen,  N. Nair,  
 D. Neuhauser,  R. Olson,  B. Peters,  J. Ritchie,  N. E. Schultz,  
 N. Shenvi,  A. C. Simmonett,  K. S. Thanthiriwatte,  Q. Wu,  W. Zhang

 Please cite Q-Chem as follows:
 Y. Shao et al., Mol. Phys. 113, 184-215 (2015)
 DOI: 10.1080/00268976.2014.952696

 Q-Chem 4.3.0 for Intel X86 Linux

 Parts of Q-Chem use Armadillo 5.200.1 (Boston Tea Smuggler).
 http://arma.sourceforge.net/

 Q-Chem begins on Fri Mar 17 04:33:38 2017  

Host: 
0

     Scratch files written to /scratch/qchem/qchem6593//
 Nov1815 1189b_ 19540  19532 5443   
 Parallel job on  1  processors
Processing $rem in /mnt/software/qchem/config/preferences.
 MEM_TOTAL  2000 

Checking the input file for inconsistencies... 	...done.

--------------------------------------------------------------
User input:
--------------------------------------------------------------
$comment
XAS calculation for the 2b valence excited for water using cvs-adc(2)-x + 6-311+G* basis set
job 1 - determination of HF orbitals
$end

$molecule
0 1
6  -0.432072  3.011191  -0.268643
9  0.504703  2.373538  -0.001757
9  -1.145839  3.323479  0.766818
9  -1.247496  0.694262  0.597925
9  -1.125019  2.616004  -1.1746
$end

$rem
jobtype      sp
sym_ignore true
exchange     hf
basis        6-31G*
unrestricted true
$end

--------------------------------------------------------------
 ----------------------------------------------------------------
             Standard Nuclear Orientation (Angstroms)
    I     Atom           X                Y                Z
 ----------------------------------------------------------------
    1      C      -0.4320720000     3.0111910000    -0.2686430000
    2      F       0.5047030000     2.3735380000    -0.0017570000
    3      F      -1.1458390000     3.3234790000     0.7668180000
    4      F      -1.2474960000     0.6942620000     0.5979250000
    5      F      -1.1250190000     2.6160040000    -1.1746000000
 ----------------------------------------------------------------
 Nuclear Repulsion Energy =   193.8296322571 hartrees
 There are       21 alpha and       21 beta electrons
 Requested basis set is 6-31G(d)
 There are 20 shells and 75 basis functions

 Total QAlloc Memory Limit   2000 MB
 Mega-Array Size        61 MB
 MEM_STATIC part        62 MB

                       Distance Matrix (Angstroms)
             C (  1)   F (  2)   F (  3)   F (  4)
   F (  2)  1.164207
   F (  3)  1.295827  2.053627
   F (  4)  2.604614  2.499958  2.636596
   F (  5)  1.207107  2.022460  2.066412  2.617239
 
 tim1(1): 
  3.999999999999997E-003
 tim1(2): 
  0.000000000000000E+000
 A cutoff of  1.0D-08 yielded    196 shell pairs
 There are      2950 function pairs
 
 -------------------------------------------------------
 OpenMP Integral Computing Module                       
 Release: version 1.0, May 2013, Q-Chem Inc. Pittsburgh 
 -------------------------------------------------------
 Integral Job Info:
 Integral job number is                      11
 Integral operator is                         1
 short-range coefficients                     0
 long-range coefficients              100000000
 Omega coefficients                           0
 if combine SR and LR in K                    0
 Integral screening is                        0
 Integral computing path is                   2
 max size of driver memory is            800000
 size of driver memory is                593474
 size of scratch memory is              2260544
 max col of scratch BK array               1296
 max len of scratch array in speh3          155
 max len of scratch index in speh4           18
 max int batch size is                      520
 min int batch size is                       52
 fixed nKL is                                52
 max L of basis functions is                  2
 order of int derivative is                   0
 number of shells is                         20
 number of basis is                          75
 number of cartesian basis is                75
 number of contracted shell pairs           196
 number of primitive shell pairs            957
 maxK2 (contraction) of shell pair           36
 max number of K2 of shell pair               1
 max number of CS2 of shell pair             26
 max number of PS2 of shell pair            180
 mem total for path MDJ                   21832
 -------------------------------------------------------
 Smallest overlap matrix eigenvalue = 1.66E-03

 Scale SEOQF with 1.000000e+00/1.000000e-01/1.000000e+00

 Standard Electronic Orientation quadrupole field applied
 Nucleus-field energy     =     0.0000000109 hartrees
 Guess from superposition of atomic densities
 Warning:  Energy on first SCF cycle will be non-variational
 An unrestricted Hartree-Fock SCF calculation will be
 performed using Pulay DIIS extrapolation
 SCF converges when DIIS error is below 1.0E-05
 using 8 threads for integral computing 
 ---------------------------------------
  Cycle       Energy         DIIS Error
 ---------------------------------------
    1    -436.4253595320      9.31E-02
    2    -435.0456319906      2.20E-02
    3    -433.9227068216      4.04E-02
    4    -435.2435711961      1.18E-02
    5    -435.2842700240      7.29E-03
    6    -435.3114749362      2.65E-03
    7    -435.3161694765      8.50E-04
    8    -435.3173645180      2.13E-04
    9    -435.3177930571      2.19E-04
   10    -435.3180250960      1.59E-04
   11    -435.3181032390      4.02E-05
   12    -435.3181066477      1.87E-05
   13    -435.3181071062      5.00E-06 Convergence criterion met
 ---------------------------------------
 <S^2> = 0.0000
 SCF time:  CPU 12.44 s  wall 4.16 s
 SCF   energy in the final basis set = -435.3181071062
 Total energy in the final basis set = -435.3181071062
 
 --------------------------------------------------------------
 
                    Orbital Energies (a.u.)
 --------------------------------------------------------------
 
 Alpha MOs
 -- Occupied --
-26.552 -26.532 -26.493 -25.972 -11.726  -1.976  -1.868  -1.792
 -1.228  -1.119  -1.033  -1.020  -0.975  -0.863  -0.842  -0.830
 -0.796  -0.790  -0.337  -0.337  -0.322
 -- Virtual --
 -0.089   0.325   0.360   0.402   0.541   0.587   0.657   0.735
  1.187   1.202   1.233   1.276   1.281   1.375   1.469   1.490
  1.496   1.519   1.533   1.539   1.633   1.769   1.784   1.851
  1.865   1.926   1.964   1.971   2.002   2.043   2.053   2.104
  2.275   2.280   2.319   2.362   2.407   2.407   2.423   2.441
  2.716   2.741   2.853   2.958   3.088   3.144   3.391   3.413
  3.519   4.184   4.471   4.634   4.839   6.616
 
 Beta MOs
 -- Occupied --
-26.552 -26.532 -26.493 -25.972 -11.726  -1.976  -1.868  -1.792
 -1.228  -1.119  -1.033  -1.020  -0.975  -0.863  -0.842  -0.830
 -0.796  -0.790  -0.337  -0.337  -0.322
 -- Virtual --
 -0.089   0.325   0.360   0.402   0.541   0.587   0.657   0.735
  1.187   1.202   1.233   1.276   1.281   1.375   1.469   1.490
  1.496   1.519   1.533   1.539   1.633   1.769   1.784   1.851
  1.865   1.926   1.964   1.971   2.002   2.043   2.053   2.104
  2.275   2.280   2.319   2.362   2.407   2.407   2.423   2.441
  2.716   2.741   2.853   2.958   3.088   3.144   3.391   3.413
  3.519   4.184   4.471   4.634   4.839   6.616
 --------------------------------------------------------------
 
          Ground-State Mulliken Net Atomic Charges

     Atom                 Charge (a.u.)    Spin (a.u.)
  --------------------------------------------------------
      1 C                     1.102955       0.000000
      2 F                    -0.000272       0.000000
      3 F                    -0.175779       0.000000
      4 F                    -0.852913       0.000000
      5 F                    -0.073992       0.000000
  --------------------------------------------------------
  Sum of atomic charges =     0.000000
  Sum of spin   charges =     0.000000

 -----------------------------------------------------------------
                    Cartesian Multipole Moments
 -----------------------------------------------------------------
    Charge (ESU x 10^10)
                 0.0000
    Dipole Moment (Debye)
         X       3.7356      Y       9.1945      Z      -3.7890
       Tot      10.6231
    Quadrupole Moments (Debye-Ang)
        XX     -28.3683     XY      -0.0035     YY      11.8819
        XZ       3.5746     YZ      -6.2759     ZZ     -23.8120
    Octopole Moments (Debye-Ang^2)
       XXX      57.0032    XXY     -56.0791    XYY       9.0718
       YYY     -46.6109    XXZ      -4.4138    XYZ       3.8248
       YYZ     -16.7486    XZZ      17.7502    YZZ     -52.7432
       ZZZ      -2.3469
    Hexadecapole Moments (Debye-Ang^3)
      XXXX    -152.8584   XXXY     109.8226   XXYY    -171.1743
      XYYY      79.5353   YYYY    -522.2892   XXXZ      10.2433
      XXYZ      -0.0414   XYYZ       8.0834   YYYZ     -42.5868
      XXZZ     -37.8915   XYZZ      35.0769   YYZZ    -156.5230
      XZZZ       6.3189   YZZZ       8.9813   ZZZZ     -78.2630
 -----------------------------------------------------------------
Archival summary:
1\1\tp-linux1\SP\HF\6-31G*\41\thomas\FriMar1704:33:422017FriMar1704:33:422017\0\\#,HF,6-31G*,\\0,1\F\C,1,1.16421\F,2,1.20711,1,117.042\F,2,1.29583,1,113.081,3,-131.287,0\F,1,2.49996,2,81.8903,3,64.6091,0\\HF=-435.318107\\@

 Total job time:  4.57s(wall), 14.21s(cpu) 
 Fri Mar 17 04:33:42 2017

        *************************************************************
        *                                                           *
        *  Thank you very much for using Q-Chem.  Have a nice day.  *
        *                                                           *
        *************************************************************


0 sent ACK to 0 
now end server 0 ... 
cleanup process ... done

Running Job 2 of 2 ddtraj2t23.inp
qchem ddtraj2t23.inp_6593.1 /scratch/qchem/qchem6593/ 1
/mnt/software/qchem/bin/mpi/mpirun_qchem -machinefile /mnt/software/qchem/bin/mpi/machines -np 1 /mnt/software/qchem/exe/qcprog.exe ddtraj2t23.inp_6593.1 /scratch/qchem/qchem6593/

Process 0 of 1 is on tp-linux1 - thread support 0
initial socket setup ...start
initial socket setup ...done 
now start server 0 ... 

cmd = ssh tp-linux1 /mnt/software/qchem/bin/get_hostid 913636018 > /scratch/qchem/qchem6593/lic.dat
                  Welcome to Q-Chem
     A Quantum Leap Into The Future Of Chemistry


 Q-Chem 4.3, Q-Chem, Inc., Pleasanton, CA (2015)

 Y. Shao,  Z. Gan,  E. Epifanovsky,  A. T. B. Gilbert,  M. Wormit,  
 J. Kussmann,  A. W. Lange,  A. Behn,  J. Deng,  X. Feng,  D. Ghosh,  
 M. Goldey,  P. R. Horn,  L. D. Jacobson,  I. Kaliman,  R. Z. Khaliullin,  
 T. Kus,  A. Landau,  J. Liu,  E. I. Proynov,  Y. M. Rhee,  R. M. Richard,  
 M. A. Rohrdanz,  R. P. Steele,  E. J. Sundstrom,  H. L. Woodcock III,  
 P. M. Zimmerman,  D. Zuev,  B. Albrecht,  E. Alguire,  B. Austin,  
 S. A. Baeppler,  G. J. O. Beran,  Y. A. Bernard,  E. Berquist,  
 K. Brandhorst,  K. B. Bravaya,  S. T. Brown,  D. Casanova,  C.-M. Chang,  
 Y. Chen,  S. H. Chien,  K. D. Closser,  D. L. Crittenden,  M. Diedenhofen,  
 R. A. DiStasio Jr.,  H. Do,  A. D. Dutoi,  R. G. Edgar,  P.-T. Fang,  
 S. Fatehi,  Q. Feng,  L. Fusti-Molnar,  A. Ghysels,  
 A. Golubeva-Zadorozhnaya,  J. Gomes,  A. Gunina,  M. W. D. Hanson-Heine,  
 P. H. P. Harbach,  A. W. Hauser,  E. G. Hohenstein,  Z. C. Holden,  K. Hui,  
 T.-C. Jagau,  H. Ji,  B. Kaduk,  K. Khistyaev,  Jaehoon Kim,  Jihan Kim,  
 R. A. King,  P. Klunzinger,  D. Kosenkov,  T. Kowalczyk,  C. M. Krauter,  
 K. U. Lao,  A. Laurent,  K. V. Lawler,  S. Lehtola,  S. V. Levchenko,  
 C. Y. Lin,  Y.-S. Lin,  F. Liu,  E. Livshits,  R. C. Lochan,  A. Luenser,  
 P. Manohar,  S. F. Manzer,  S.-P. Mao,  N. Mardirossian,  A. V. Marenich,  
 L. A. Martinez-Martinez,  S. A. Maurer,  N. J. Mayhall,  K. Nanda,  
 C. M. Oana,  R. Olivares-Amaya,  D. P. O'Neill,  J. A. Parkhill,  
 T. M. Perrine,  R. Peverati,  P. A. Pieniazek,  F. Plasser,  A. Prociuk,  
 D. R. Rehn,  E. Rosta,  N. J. Russ,  N. Sergueev,  S. M. Sharada,  
 S. Sharma,  D. W. Small,  A. Sodt,  T. Stauch,  T. Stein,  D. Stuck,  
 Y.-C. Su,  A. J. W. Thom,  T. Tsuchimochi,  L. Vogt,  O. Vydrov,  T. Wang,  
 M. A. Watson,  J. Wenzel,  A. White,  C. F. Williams,  V. Vanovschi,  
 S. Yeganeh,  S. R. Yost,  Z.-Q. You,  I. Y. Zhang,  X. Zhang,  Y. Zhao,  
 B. R. Brooks,  G. K. L. Chan,  D. M. Chipman,  C. J. Cramer,  
 W. A. Goddard III,  M. S. Gordon,  W. J. Hehre,  A. Klamt,  
 H. F. Schaefer III,  M. W. Schmidt,  C. D. Sherrill,  D. G. Truhlar,  
 A. Warshel,  X. Xu,  A. Aspuru-Guzik,  R. Baer,  A. T. Bell,  N. A. Besley,  
 J.-D. Chai,  A. Dreuw,  B. D. Dunietz,  T. R. Furlani,  S. R. Gwaltney,  
 C.-P. Hsu,  Y. Jung,  J. Kong,  D. S. Lambrecht,  W. Liang,  C. Ochsenfeld,  
 V. A. Rassolov,  L. V. Slipchenko,  J. E. Subotnik,  T. Van Voorhis,  
 J. M. Herbert,  A. I. Krylov,  P. M. W. Gill,  M. Head-Gordon

 Contributors to earlier versions of Q-Chem not listed above: 
 R. D. Adamson,  J. Baker,  E. F. C. Byrd,  A. K. Chakraborty,  C.-L. Cheng,  
 H. Dachsel,  R. J. Doerksen,  G. Hawkins,  A. Heyden,  S. Hirata,  
 G. Kedziora,  F. J. Keil,  C. Kelley,  P. P. Korambath,  W. Kurlancheek,  
 A. M. Lee,  M. S. Lee,  D. Liotard,  I. Lotan,  P. E. Maslen,  N. Nair,  
 D. Neuhauser,  R. Olson,  B. Peters,  J. Ritchie,  N. E. Schultz,  
 N. Shenvi,  A. C. Simmonett,  K. S. Thanthiriwatte,  Q. Wu,  W. Zhang

 Please cite Q-Chem as follows:
 Y. Shao et al., Mol. Phys. 113, 184-215 (2015)
 DOI: 10.1080/00268976.2014.952696

 Q-Chem 4.3.0 for Intel X86 Linux

 Parts of Q-Chem use Armadillo 5.200.1 (Boston Tea Smuggler).
 http://arma.sourceforge.net/

 Q-Chem begins on Fri Mar 17 04:33:45 2017  

Host: 
0

     Scratch files written to /scratch/qchem/qchem6593//
 Nov1815 1189b_ 19540  19532 5443   
 Parallel job on  1  processors
Processing $rem in /mnt/software/qchem/config/preferences.
 MEM_TOTAL  2000 

Checking the input file for inconsistencies... 	...done.

--------------------------------------------------------------
User input:
--------------------------------------------------------------

$comment
job3 - cvs-adc(2) calculation
$end

$molecule
read
$end

$rem
mem_total 3000
mem_static 1500
sym_ignore true
scf_guess read
method cvs-adc(2)
basis 6-31G*
ee_singlets 20
cc_rest_occ 5                  !only excitations from the lowest N orbitals
unrestricted  true
max_scf_cycles 200
$end
--------------------------------------------------------------
 ----------------------------------------------------------------
             Standard Nuclear Orientation (Angstroms)
    I     Atom           X                Y                Z
 ----------------------------------------------------------------
    1      C      -0.4320720000     3.0111910000    -0.2686430000
    2      F       0.5047030000     2.3735380000    -0.0017570000
    3      F      -1.1458390000     3.3234790000     0.7668180000
    4      F      -1.2474960000     0.6942620000     0.5979250000
    5      F      -1.1250190000     2.6160040000    -1.1746000000
 ----------------------------------------------------------------
 Nuclear Repulsion Energy =   193.8296322571 hartrees
 There are       21 alpha and       21 beta electrons
 Requested basis set is 6-31G(d)
 There are 20 shells and 75 basis functions

 Total QAlloc Memory Limit   3000 MB
 Mega-Array Size      1467 MB
 MEM_STATIC part      1500 MB

                       Distance Matrix (Angstroms)
             C (  1)   F (  2)   F (  3)   F (  4)
   F (  2)  1.164207
   F (  3)  1.295827  2.053627
   F (  4)  2.604614  2.499958  2.636596
   F (  5)  1.207107  2.022460  2.066412  2.617239
 
 tim1(1): 
  0.000000000000000E+000
 tim1(2): 
  0.000000000000000E+000
 A cutoff of  1.0D-11 yielded    199 shell pairs
 There are      2962 function pairs
 
 -------------------------------------------------------
 OpenMP Integral Computing Module                       
 Release: version 1.0, May 2013, Q-Chem Inc. Pittsburgh 
 -------------------------------------------------------
 Integral Job Info:
 Integral job number is                      11
 Integral operator is                         1
 short-range coefficients                     0
 long-range coefficients              100000000
 Omega coefficients                           0
 if combine SR and LR in K                    0
 Integral screening is                        0
 Integral computing path is                   2
 max size of driver memory is            800000
 size of driver memory is                593474
 size of scratch memory is              2260544
 max col of scratch BK array               1296
 max len of scratch array in speh3          155
 max len of scratch index in speh4           18
 max int batch size is                      520
 min int batch size is                       52
 fixed nKL is                                52
 max L of basis functions is                  2
 order of int derivative is                   0
 number of shells is                         20
 number of basis is                          75
 number of cartesian basis is                75
 number of contracted shell pairs           199
 number of primitive shell pairs           1013
 maxK2 (contraction) of shell pair           36
 max number of K2 of shell pair               1
 max number of CS2 of shell pair             32
 max number of PS2 of shell pair            192
 mem total for path MDJ                   21832
 -------------------------------------------------------
 Smallest overlap matrix eigenvalue = 1.66E-03

 Scale SEOQF with 1.000000e+00/1.000000e-01/1.000000e+00

 Standard Electronic Orientation quadrupole field applied
 Nucleus-field energy     =     0.0000000109 hartrees
 Guess MOs from SCF MO coefficient file
 Reading MOs from coefficient file
 Reading MOs from coefficient file
 An unrestricted Hartree-Fock SCF calculation will be
 performed using Pulay DIIS extrapolation
 SCF converges when DIIS error is below 1.0E-08
 using 8 threads for integral computing 
 ---------------------------------------
  Cycle       Energy         DIIS Error
 ---------------------------------------
    1    -435.3181071283      2.85E-06
    2    -435.3181071990      2.44E-06
    3    -435.3181072571      1.65E-06
    4    -435.3181073125      4.77E-07
    5    -435.3181073159      2.33E-07
    6    -435.3181073161      1.41E-07
    7    -435.3181073162      9.52E-08
    8    -435.3181073163      3.34E-08
    9    -435.3181073163      6.51E-09 Convergence criterion met
 ---------------------------------------
 <S^2> = 0.0000
 SCF time:  CPU 11.08 s  wall 2.85 s
 SCF   energy in the final basis set = -435.3181073163
 Total energy in the final basis set = -435.3181073163
================================================================================
|                                                                              |
|                                 A D C  M A N                                 |
|                                                                              |
 ------------------------------------------------------------------------------ 
|                                                                              |
| Components:                                                                  |
|                                                                              |
| - libvmm - 1.2-release                                                       |
|   Authors:                                                                   |
|   Evgeny Epifanovsky, Ilya Kaliman                                           |
|                                                                              |
| - libtensor - 2.4-trunk                                                      |
|   Authors:                                                                   |
|   Evgeny Epifanovsky, Michael Wormit, Dmitry Zuev, Sam Manzer                |
|                                                                              |
| - libwfa - 1.1-beta                                                          |
|   Authors:                                                                   |
|   Felix Plasser, Stefanie Baeppler, Benjamin Thomitzni, Michael Wormit       |
|                                                                              |
| - libadc - 1.0-beta                                                          |
|   Authors:                                                                   |
|   Michael Wormit, Philipp H. P. Harbach, Caroline Krauter, Dirk Rehn,        |
|   Matthias Schneider, Jan Wenzel                                             |
|                                                                              |
| - adcman - 2.4-beta                                                          |
|   Authors:                                                                   |
|   Michael Wormit, Philipp H. P. Harbach, Caroline Krauter, Dirk Rehn,        |
|   Jan Wenzel, Andreas Dreuw                                                  |
|                                                                              |
| Authors of earlier versions of ADCMAN:                                       |
| Andreas Dreuw, Jan Hendrik Starcke, Dirk Rehn, Michael Wormit                |
|                                                                              |
================================================================================

 
 Alpha MOs, Unrestricted
 -- Occupied --                  
-26.552 -26.532 -26.493 -25.972 -11.726  -1.976  -1.868  -1.792
  1 A     2 A     3 A     4 A     5 A     6 A     7 A     8 A                  
 -1.228  -1.119  -1.033  -1.020  -0.975  -0.863  -0.842  -0.830
  9 A    10 A    11 A    12 A    13 A    14 A    15 A    16 A                  
 -0.796  -0.790  -0.338  -0.337  -0.322
 17 A    18 A    19 A    20 A    21 A                                          
 -- Virtual --                   
 -0.089   0.325   0.360   0.402   0.541   0.587   0.657   0.735
 22 A    23 A    24 A    25 A    26 A    27 A    28 A    29 A                  
  1.187   1.202   1.233   1.276   1.281   1.375   1.470   1.490
 30 A    31 A    32 A    33 A    34 A    35 A    36 A    37 A                  
  1.496   1.519   1.533   1.539   1.633   1.769   1.784   1.851
 38 A    39 A    40 A    41 A    42 A    43 A    44 A    45 A                  
  1.865   1.926   1.964   1.971   2.002   2.043   2.053   2.104
 46 A    47 A    48 A    49 A    50 A    51 A    52 A    53 A                  
  2.275   2.280   2.319   2.362   2.407   2.407   2.423   2.441
 54 A    55 A    56 A    57 A    58 A    59 A    60 A    61 A                  
  2.716   2.741   2.853   2.958   3.088   3.144   3.391   3.414
 62 A    63 A    64 A    65 A    66 A    67 A    68 A    69 A                  
  3.519   4.184   4.471   4.634   4.839   6.616
 70 A    71 A    72 A    73 A    74 A    75 A                                  
 
 Beta MOs, Unrestricted
 -- Occupied --                  
-26.552 -26.532 -26.493 -25.972 -11.726  -1.976  -1.868  -1.792
  1 A     2 A     3 A     4 A     5 A     6 A     7 A     8 A                  
 -1.228  -1.119  -1.033  -1.020  -0.975  -0.863  -0.842  -0.830
  9 A    10 A    11 A    12 A    13 A    14 A    15 A    16 A                  
 -0.796  -0.790  -0.338  -0.337  -0.322
 17 A    18 A    19 A    20 A    21 A                                          
 -- Virtual --                   
 -0.089   0.325   0.360   0.402   0.541   0.587   0.657   0.735
 22 A    23 A    24 A    25 A    26 A    27 A    28 A    29 A                  
  1.187   1.202   1.233   1.276   1.281   1.375   1.470   1.490
 30 A    31 A    32 A    33 A    34 A    35 A    36 A    37 A                  
  1.496   1.519   1.533   1.539   1.633   1.769   1.784   1.851
 38 A    39 A    40 A    41 A    42 A    43 A    44 A    45 A                  
  1.865   1.926   1.964   1.971   2.002   2.043   2.053   2.104
 46 A    47 A    48 A    49 A    50 A    51 A    52 A    53 A                  
  2.275   2.280   2.319   2.362   2.407   2.407   2.423   2.441
 54 A    55 A    56 A    57 A    58 A    59 A    60 A    61 A                  
  2.716   2.741   2.853   2.958   3.088   3.144   3.391   3.414
 62 A    63 A    64 A    65 A    66 A    67 A    68 A    69 A                  
  3.519   4.184   4.471   4.634   4.839   6.616
 70 A    71 A    72 A    73 A    74 A    75 A                                  
 

--------------------------------------------------------------------------------
                                   HF Summary                                   
--------------------------------------------------------------------------------
  Energy:                                                 -435.3181073163 a.u.
  Dip. moment [a.u.]:                  [ -57.623165,  183.717137,    1.648383]
  Total dipole [Debye]:                                             489.410935
  <r^2> [a.u.]:                        [ 166.170300,  956.951827,   93.981231]
  Total <r^2> [a.u.]:                                              1217.103358
--------------------------------------------------------------------------------

--------------------------------------------------------------------------------
                                 MP(2) Summary                                  
--------------------------------------------------------------------------------
  Energy contribution:                                      -0.8201704657 a.u.
  Total energy:                                           -436.1382777820 a.u.
  Dip. moment [a.u.]:                  [ -57.273847,  184.617609,    1.296313]
  Total dipole [Debye]:                                             491.324587
  <r^2> [a.u.]:                        [ 165.157761,  964.563005,   93.844976]
  Total <r^2> [a.u.]:                                              1223.565742
--------------------------------------------------------------------------------
  Starting Davidson ... 
--------------------------------------------------------------------------------
   It NVec Conv  Avg. Norm  Max. Norm  Conv. states           Remark
--------------------------------------------------------------------------------
        20    0  2.085e-01  1.065e+00 10.9483 n n n n n n n n Guess.
    1   40    0  7.220e-02  1.031e+00 10.7710 n n n n n n n n 
    2   60    0  3.944e-02  6.311e-01 10.7696 n n n n n n n n 
    3   80    0  2.663e-02  4.301e-01 10.7695 n n n n n n n n 
    4  100    0  2.434e-02  4.062e-01 10.7695 n n n n n n n n 
    5   40    0  2.157e-02  3.571e-01 10.7695 n n n n n n n n Subspace collapsed.
    6   60    0  1.970e-02  3.286e-01 10.7695 n n n n n n n n 
    7   80    0  1.926e-02  3.206e-01 10.7695 n n n n n n n n 
    8  100    1  3.154e-02  5.210e-01 10.7695 y n n n n n n n 
    9   40    7  2.673e-02  4.119e-01 10.7695 y y n y y y y y Subspace collapsed.
   10   60    8  2.475e-02  3.795e-01 10.7695 y y y y y y y y 
   11   80   12  2.117e-02  3.128e-01 10.7695 y y y y y y y y 
   12  100   14  1.848e-02  2.615e-01 10.7695 y y y y y y y y 
   13   40   14  1.835e-02  2.665e-01 10.7695 y y y y y y y y Subspace collapsed.
   14   60   14  1.743e-02  2.472e-01 10.7695 y y y y y y y y 
   15   80   14  2.810e-02  4.532e-01 10.7695 y y y y y y y y 
   16  100   14  2.295e-02  3.529e-01 10.7695 y y y y y y y y 
   17   39   14  2.272e-02  3.503e-01 10.7695 y y y y y y y y Subspace collapsed.
   18   58   14  1.927e-02  2.632e-01 10.7695 y y y y y y y y 
   19   60   14  1.925e-02  2.625e-01 10.7695 y y y y y y y y 
   20   76   14  1.551e-02  2.030e-01 10.7695 y y y y y y y y 
   21   89   15  1.487e-02  1.929e-01 10.7695 y y y y y y y y 
   22  100   16  1.379e-02  1.873e-01 10.7695 y y y y y y y y 
   23   32   16  1.357e-02  1.866e-01 10.7695 y y y y y y y y Subspace collapsed.
   24   43   16  1.313e-02  1.881e-01 10.7695 y y y y y y y y 
   25   43   16  1.313e-02  1.881e-01 10.7695 y y y y y y y y 
   26   63   16  1.180e-02  1.835e-01 10.7695 y y y y y y y y 
   27   63   16  1.180e-02  1.835e-01 10.7695 y y y y y y y y 
   28   63   16  1.180e-02  1.835e-01 10.7695 y y y y y y y y 
   29   83   16  1.107e-02  1.808e-01 10.7695 y y y y y y y y 
   30   90   16  1.066e-02  1.784e-01 10.7695 y y y y y y y y 
   31   96   16  1.043e-02  1.765e-01 10.7695 y y y y y y y y 
   32  100   16  1.030e-02  1.768e-01 10.7695 y y y y y y y y 
   33   26   16  1.020e-02  1.765e-01 10.7695 y y y y y y y y Subspace collapsed.
   34   26   16  1.020e-02  1.765e-01 10.7695 y y y y y y y y 
   35   29   16  1.020e-02  1.766e-01 10.7695 y y y y y y y y 
   36   35   16  1.014e-02  1.759e-01 10.7695 y y y y y y y y 
   37   41   16  9.983e-03  1.757e-01 10.7695 y y y y y y y y 
   38   47   16  9.918e-03  1.747e-01 10.7695 y y y y y y y y 
   39   53   16  9.670e-03  1.721e-01 10.7695 y y y y y y y y 
   40   53   16  9.670e-03  1.721e-01 10.7695 y y y y y y y y 
   41   53   16  9.670e-03  1.721e-01 10.7695 y y y y y y y y 
   42   73   17  9.455e-03  1.698e-01 10.7695 y y y y y y y y 
   43   73   17  9.455e-03  1.698e-01 10.7695 y y y y y y y y 
   44   73   17  9.455e-03  1.698e-01 10.7695 y y y y y y y y 
   45   93   17  8.918e-03  1.619e-01 10.7695 y y y y y y y y 
   46   93   17  8.918e-03  1.619e-01 10.7695 y y y y y y y y 
   47   94   17  8.915e-03  1.618e-01 10.7695 y y y y y y y y 
   48   95   17  8.880e-03  1.611e-01 10.7695 y y y y y y y y 
   49   96   17  8.852e-03  1.605e-01 10.7695 y y y y y y y y 
   50   97   17  8.829e-03  1.600e-01 10.7695 y y y y y y y y 
   51  100   16  8.802e-03  1.594e-01 10.7695 y y y y y y y y 
   52   24   17  8.782e-03  1.590e-01 10.7695 y y y y y y y y Subspace collapsed.
   53   28   17  8.725e-03  1.578e-01 10.7695 y y y y y y y y 
   54   32   17  8.724e-03  1.578e-01 10.7695 y y y y y y y y 
   55   34   17  8.721e-03  1.578e-01 10.7695 y y y y y y y y 
   56   35   17  8.719e-03  1.577e-01 10.7695 y y y y y y y y 
   57   36   17  8.718e-03  1.577e-01 10.7695 y y y y y y y y 
   58   37   17  8.720e-03  1.578e-01 10.7695 y y y y y y y y 
   59   38   17  8.711e-03  1.576e-01 10.7695 y y y y y y y y 
--------------------------------------------------------------------------------
  Davidson Summary: 
 ------------------------------------------------------------
  State  0: excitation energy =  10.7695 a.u.   (converged)
  State  1: excitation energy =  10.8326 a.u.   (converged)
  State  2: excitation energy =  11.1223 a.u.   (converged)
  State  3: excitation energy =  11.1996 a.u.   (converged)
  State  4: excitation energy =  11.2143 a.u.   (converged)
  State  5: excitation energy =  11.2590 a.u.   (converged)
  State  6: excitation energy =  11.2853 a.u.   (converged)
  State  7: excitation energy =  11.3187 a.u.   (converged)
  State  8: excitation energy =  11.4634 a.u.   (converged)
  State  9: excitation energy =  11.5058 a.u.   (converged)
  State 10: excitation energy =  11.5187 a.u.   (converged)
  State 11: excitation energy =  11.5201 a.u.   (converged)
  State 12: excitation energy =  11.5288 a.u.   (converged)
  State 13: excitation energy =  11.5483 a.u.   (converged)
  State 14: excitation energy =  11.6737 a.u.   (converged)
  State 15: excitation energy =  11.6951 a.u.   (converged)
  State 16: excitation energy =  11.8710 a.u.   (not converged)
  State 17: excitation energy =  11.8715 a.u.   (converged)
  State 18: excitation energy =  11.8884 a.u.   (not converged)
  State 19: excitation energy =  11.8958 a.u.   (not converged)
 ------------------------------------------------------------


--------------------------------------------------------------------------------
                             Excited State Summary
--------------------------------------------------------------------------------

  Excited state  1 (A)                                             [converged]
  ----------------------------------------------------------------------------
  Term symbol:  2 (-) A                                     R^2 =  1.21489e-12

  Total energy:                                           -425.3687791564 a.u.
  Excitation energy:                                             293.052962 eV

  Osc. strength:                                                      0.000000
  Trans. dip. moment [a.u.]:           [  -0.000000,   -0.000000,   -0.000000]
  <i|r^2|0> [a.u.]:                    [   0.000000,   -0.000000,    0.000000]

  V1^2 = 0.9510, V2^2 = 0.0490

  Important amplitudes:
     core i     occ j      vir a      vir b          v   
    ------------------------------------------------------
     5 (A) B              22 (A) B                -0.6487
     5 (A) A              22 (A) A                 0.6487
    ------------------------------------------------------
  ----------------------------------------------------------------------------


  Excited state  2 (A)                                             [converged]
  ----------------------------------------------------------------------------
  Term symbol:  3 (-) A                                     R^2 =  1.20778e-12

  Total energy:                                           -425.3056979936 a.u.
  Excitation energy:                                             294.769487 eV

  Osc. strength:                                                      0.074112
  Trans. dip. moment [a.u.]:           [   0.036237,    0.088923,   -0.032279]
  <i|r^2|0> [a.u.]:                    [  -0.051267,    1.024498,    0.041015]

  V1^2 = 0.9442, V2^2 = 0.0558

  Important amplitudes:
     core i     occ j      vir a      vir b          v   
    ------------------------------------------------------
     5 (A) A              22 (A) A                 0.6620
     5 (A) B              22 (A) B                 0.6620
    ------------------------------------------------------
  ----------------------------------------------------------------------------


  Excited state  3 (A)                                             [converged]
  ----------------------------------------------------------------------------
  Term symbol:  4 (-) A                                     R^2 =  1.27049e-12

  Total energy:                                           -425.0159758452 a.u.
  Excitation energy:                                             302.653228 eV

  Osc. strength:                                                      0.000000
  Trans. dip. moment [a.u.]:           [   0.000000,   -0.000000,   -0.000000]
  <i|r^2|0> [a.u.]:                    [  -0.000000,   -0.000000,    0.000000]

  V1^2 = 0.9475, V2^2 = 0.0525

  Important amplitudes:
     core i     occ j      vir a      vir b          v   
    ------------------------------------------------------
     5 (A) B              23 (A) B                -0.5183
     5 (A) A              23 (A) A                 0.5183
    ------------------------------------------------------
  ----------------------------------------------------------------------------


  Excited state  4 (A)                                             [converged]
  ----------------------------------------------------------------------------
  Term symbol:  5 (-) A                                     R^2 =  5.85356e-12

  Total energy:                                           -424.9386329844 a.u.
  Excitation energy:                                             304.757834 eV

  Osc. strength:                                                      0.105446
  Trans. dip. moment [a.u.]:           [  -0.056615,    0.029954,    0.100101]
  <i|r^2|0> [a.u.]:                    [   0.100550,    0.351885,   -0.097210]

  V1^2 = 0.9386, V2^2 = 0.0614

  Important amplitudes:
     core i     occ j      vir a      vir b          v   
    ------------------------------------------------------
     5 (A) B              23 (A) B                 0.5582
     5 (A) A              23 (A) A                 0.5582
    ------------------------------------------------------
  ----------------------------------------------------------------------------


  Excited state  5 (A)                                             [converged]
  ----------------------------------------------------------------------------
  Term symbol:  6 (-) A                                     R^2 =  8.65821e-13

  Total energy:                                           -424.9240197165 a.u.
  Excitation energy:                                             305.155481 eV

  Osc. strength:                                                      0.000000
  Trans. dip. moment [a.u.]:           [  -0.000000,   -0.000000,   -0.000000]
  <i|r^2|0> [a.u.]:                    [   0.000000,   -0.000000,    0.000000]

  V1^2 = 0.9407, V2^2 = 0.0593

  Important amplitudes:
     core i     occ j      vir a      vir b          v   
    ------------------------------------------------------
     5 (A) B              24 (A) B                -0.3721
     5 (A) A              24 (A) A                 0.3721
    ------------------------------------------------------
  ----------------------------------------------------------------------------


  Excited state  6 (A)                                             [converged]
  ----------------------------------------------------------------------------
  Term symbol:  7 (-) A                                     R^2 =  1.16200e-12

  Total energy:                                           -424.8793160337 a.u.
  Excitation energy:                                             306.371930 eV

  Osc. strength:                                                      0.000000
  Trans. dip. moment [a.u.]:           [   0.000000,    0.000000,    0.000000]
  <i|r^2|0> [a.u.]:                    [  -0.000000,    0.000000,   -0.000000]

  V1^2 = 0.9341, V2^2 = 0.0659

  Important amplitudes:
     core i     occ j      vir a      vir b          v   
    ------------------------------------------------------
     5 (A) B              25 (A) B                -0.4192
     5 (A) A              25 (A) A                 0.4192
    ------------------------------------------------------
  ----------------------------------------------------------------------------


  Excited state  7 (A)                                             [converged]
  ----------------------------------------------------------------------------
  Term symbol:  8 (-) A                                     R^2 =  5.78457e-12

  Total energy:                                           -424.8529682777 a.u.
  Excitation energy:                                             307.088889 eV

  Osc. strength:                                                      0.078124
  Trans. dip. moment [a.u.]:           [   0.079616,    0.041900,    0.047850]
  <i|r^2|0> [a.u.]:                    [  -0.140209,    0.462470,   -0.054828]

  V1^2 = 0.9287, V2^2 = 0.0713

  Important amplitudes:
     core i     occ j      vir a      vir b          v   
    ------------------------------------------------------
     5 (A) B              24 (A) B                 0.4114
     5 (A) A              24 (A) A                 0.4114
    ------------------------------------------------------
  ----------------------------------------------------------------------------


  Excited state  8 (A)                                             [converged]
  ----------------------------------------------------------------------------
  Term symbol:  9 (-) A                                     R^2 =  1.14613e-11

  Total energy:                                           -424.8195533807 a.u.
  Excitation energy:                                             307.998155 eV

  Osc. strength:                                                      0.065679
  Trans. dip. moment [a.u.]:           [  -0.048990,    0.070742,   -0.036048]
  <i|r^2|0> [a.u.]:                    [   0.076220,    0.795264,    0.025695]

  V1^2 = 0.9229, V2^2 = 0.0771

  Important amplitudes:
     core i     occ j      vir a      vir b          v   
    ------------------------------------------------------
     5 (A) A              25 (A) A                -0.4461
     5 (A) B              25 (A) B                -0.4461
    ------------------------------------------------------
  ----------------------------------------------------------------------------


  Excited state  9 (A)                                             [converged]
  ----------------------------------------------------------------------------
  Term symbol:  10 (-) A                                    R^2 =  1.26998e-11

  Total energy:                                           -424.6749138434 a.u.
  Excitation energy:                                             311.933997 eV

  Osc. strength:                                                      0.000000
  Trans. dip. moment [a.u.]:           [   0.000000,   -0.000000,    0.000000]
  <i|r^2|0> [a.u.]:                    [  -0.000000,   -0.000000,   -0.000000]

  V1^2 = 0.9187, V2^2 = 0.0813

  Important amplitudes:
     core i     occ j      vir a      vir b          v   
    ------------------------------------------------------
     5 (A) B              26 (A) B                -0.5258
     5 (A) A              26 (A) A                 0.5258
    ------------------------------------------------------
  ----------------------------------------------------------------------------


  Excited state 10 (A)                                             [converged]
  ----------------------------------------------------------------------------
  Term symbol:  11 (-) A                                    R^2 =  3.88994e-12

  Total energy:                                           -424.6324530468 a.u.
  Excitation energy:                                             313.089414 eV

  Osc. strength:                                                      0.000000
  Trans. dip. moment [a.u.]:           [   0.000000,   -0.000000,   -0.000000]
  <i|r^2|0> [a.u.]:                    [  -0.000000,   -0.000000,    0.000000]

  V1^2 = 0.8933, V2^2 = 0.1067

  Important amplitudes:
     core i     occ j      vir a      vir b          v   
    ------------------------------------------------------
     5 (A) B              27 (A) B                 0.4108
     5 (A) A              27 (A) A                -0.4108
    ------------------------------------------------------
  ----------------------------------------------------------------------------


  Excited state 11 (A)                                             [converged]
  ----------------------------------------------------------------------------
  Term symbol:  12 (-) A                                    R^2 =  2.87567e-11

  Total energy:                                           -424.6196056150 a.u.
  Excitation energy:                                             313.439010 eV

  Osc. strength:                                                      0.000000
  Trans. dip. moment [a.u.]:           [   0.000000,    0.000000,    0.000000]
  <i|r^2|0> [a.u.]:                    [  -0.000000,    0.000000,   -0.000000]

  V1^2 = 0.8960, V2^2 = 0.1040

  Important amplitudes:
     core i     occ j      vir a      vir b          v   
    ------------------------------------------------------
     5 (A) B              24 (A) B                 0.4557
     5 (A) A              24 (A) A                -0.4557
    ------------------------------------------------------
  ----------------------------------------------------------------------------


  Excited state 12 (A)                                             [converged]
  ----------------------------------------------------------------------------
  Term symbol:  13 (-) A                                    R^2 =  4.38269e-11

  Total energy:                                           -424.6181406136 a.u.
  Excitation energy:                                             313.478875 eV

  Osc. strength:                                                      0.023791
  Trans. dip. moment [a.u.]:           [   0.003282,   -0.052652,   -0.017741]
  <i|r^2|0> [a.u.]:                    [  -0.021696,   -0.614748,    0.001476]

  V1^2 = 0.9061, V2^2 = 0.0939

  Important amplitudes:
     core i     occ j      vir a      vir b          v   
    ------------------------------------------------------
     5 (A) A              26 (A) A                 0.6246
     5 (A) B              26 (A) B                 0.6246
    ------------------------------------------------------
  ----------------------------------------------------------------------------


  Excited state 13 (A)                                             [converged]
  ----------------------------------------------------------------------------
  Term symbol:  14 (-) A                                    R^2 =  1.00187e-10

  Total energy:                                           -424.6094301319 a.u.
  Excitation energy:                                             313.715899 eV

  Osc. strength:                                                      0.030607
  Trans. dip. moment [a.u.]:           [  -0.008310,    0.001495,    0.062538]
  <i|r^2|0> [a.u.]:                    [  -0.000815,   -0.000223,   -0.078139]

  V1^2 = 0.9055, V2^2 = 0.0945

  Important amplitudes:
     core i     occ j      vir a      vir b          v   
    ------------------------------------------------------
     5 (A) B              27 (A) B                -0.5578
     5 (A) A              27 (A) A                -0.5578
    ------------------------------------------------------
  ----------------------------------------------------------------------------


  Excited state 14 (A)                                             [converged]
  ----------------------------------------------------------------------------
  Term symbol:  15 (-) A                                    R^2 =  1.90055e-12

  Total energy:                                           -424.5899762431 a.u.
  Excitation energy:                                             314.245267 eV

  Osc. strength:                                                      0.052969
  Trans. dip. moment [a.u.]:           [  -0.078101,    0.015355,   -0.023337]
  <i|r^2|0> [a.u.]:                    [   0.123100,    0.167157,    0.013808]

  V1^2 = 0.9047, V2^2 = 0.0953

  Important amplitudes:
     core i     occ j      vir a      vir b          v   
    ------------------------------------------------------
     5 (A) A              28 (A) A                -0.5199
     5 (A) B              28 (A) B                -0.5199
    ------------------------------------------------------
  ----------------------------------------------------------------------------


  Excited state 15 (A)                                             [converged]
  ----------------------------------------------------------------------------
  Term symbol:  16 (-) A                                    R^2 =  2.70834e-10

  Total energy:                                           -424.4646007777 a.u.
  Excitation energy:                                             317.656906 eV

  Osc. strength:                                                      0.000000
  Trans. dip. moment [a.u.]:           [   0.000000,   -0.000000,    0.000000]
  <i|r^2|0> [a.u.]:                    [  -0.000000,   -0.000000,   -0.000000]

  V1^2 = 0.8728, V2^2 = 0.1272

  Important amplitudes:
     core i     occ j      vir a      vir b          v   
    ------------------------------------------------------
     5 (A) A              29 (A) A                -0.5445
     5 (A) B              29 (A) B                 0.5445
    ------------------------------------------------------
  ----------------------------------------------------------------------------


  Excited state 16 (A)                                             [converged]
  ----------------------------------------------------------------------------
  Term symbol:  17 (-) A                                    R^2 =  1.84349e-10

  Total energy:                                           -424.4431846097 a.u.
  Excitation energy:                                             318.239670 eV

  Osc. strength:                                                      0.012580
  Trans. dip. moment [a.u.]:           [  -0.009248,   -0.036777,    0.013243]
  <i|r^2|0> [a.u.]:                    [   0.027925,   -0.405610,    0.000756]

  V1^2 = 0.8755, V2^2 = 0.1245

  Important amplitudes:
     core i     occ j      vir a      vir b          v   
    ------------------------------------------------------
     5 (A) A              29 (A) A                 0.5904
     5 (A) B              29 (A) B                 0.5904
    ------------------------------------------------------
  ----------------------------------------------------------------------------


  Excited state 17 (A)                                         [not converged]
  ----------------------------------------------------------------------------
  Term symbol:  18 (-) A                                    R^2 =  1.05316e-02

  Total energy:                                           -424.2673215162 a.u.
  Excitation energy:                                             323.025148 eV


  V1^2 = 0.0036, V2^2 = 0.9964

  Important amplitudes:
     core i     occ j      vir a      vir b          v   
    ------------------------------------------------------
     5 (A) A   21 (A) B   22 (A) A   22 (A) B     -0.4990
     5 (A) B   21 (A) A   22 (A) A   22 (A) B     -0.4989
    ------------------------------------------------------
  ----------------------------------------------------------------------------


  Excited state 18 (A)                                             [converged]
  ----------------------------------------------------------------------------
  Term symbol:  19 (-) A                                    R^2 =  2.85969e-07

  Total energy:                                           -424.2668119893 a.u.
  Excitation energy:                                             323.039013 eV

  Osc. strength:                                                      0.000005
  Trans. dip. moment [a.u.]:           [   0.000633,    0.000294,   -0.000357]
  <i|r^2|0> [a.u.]:                    [   0.000981,    0.004291,    0.002474]

  V1^2 = 0.0046, V2^2 = 0.9954

  Important amplitudes:
     core i     occ j      vir a      vir b          v   
    ------------------------------------------------------
     5 (A) A   21 (A) B   22 (A) A   22 (A) B      0.4987
     5 (A) B   21 (A) A   22 (A) A   22 (A) B     -0.4987
    ------------------------------------------------------
  ----------------------------------------------------------------------------


  Excited state 19 (A)                                         [not converged]
  ----------------------------------------------------------------------------
  Term symbol:  20 (-) A                                    R^2 =  7.33990e-02

  Total energy:                                           -424.2499004522 a.u.
  Excitation energy:                                             323.499199 eV


  V1^2 = 0.0002, V2^2 = 0.9998

  Important amplitudes:
     core i     occ j      vir a      vir b          v   
    ------------------------------------------------------
     5 (A) A   20 (A) B   22 (A) A   22 (A) B      0.3575
     5 (A) B   19 (A) A   22 (A) A   22 (A) B     -0.3551
    ------------------------------------------------------
  ----------------------------------------------------------------------------


  Excited state 20 (A)                                         [not converged]
  ----------------------------------------------------------------------------
  Term symbol:  21 (-) A                                    R^2 =  1.57649e-01

  Total energy:                                           -424.2424420984 a.u.
  Excitation energy:                                             323.702152 eV


  V1^2 = 0.0005, V2^2 = 0.9995

  Important amplitudes:
     core i     occ j      vir a      vir b          v   
    ------------------------------------------------------
     5 (A) B   20 (A) A   22 (A) A   22 (A) B     -0.4922
     5 (A) A   20 (A) B   22 (A) A   22 (A) B      0.4908
    ------------------------------------------------------
  ----------------------------------------------------------------------------


--------------------------------------------------------------------------------
  Time of ADC calculation:  CPU 3285.64 s  wall 1990.71 s
================================================================================
 
 --------------------------------------------------------------
 
                    Orbital Energies (a.u.)
 --------------------------------------------------------------
 
 Alpha MOs
 -- Occupied --
-26.552 -26.532 -26.493 -25.972 -11.726  -1.976  -1.868  -1.792
 -1.228  -1.119  -1.033  -1.020  -0.975  -0.863  -0.842  -0.830
 -0.796  -0.790  -0.338  -0.337  -0.322
 -- Virtual --
 -0.089   0.325   0.360   0.402   0.541   0.587   0.657   0.735
  1.187   1.202   1.233   1.276   1.281   1.375   1.470   1.490
  1.496   1.519   1.533   1.539   1.633   1.769   1.784   1.851
  1.865   1.926   1.964   1.971   2.002   2.043   2.053   2.104
  2.275   2.280   2.319   2.362   2.407   2.407   2.423   2.441
  2.716   2.741   2.853   2.958   3.088   3.144   3.391   3.414
  3.519   4.184   4.471   4.634   4.839   6.616
 
 Beta MOs
 -- Occupied --
-26.552 -26.532 -26.493 -25.972 -11.726  -1.976  -1.868  -1.792
 -1.228  -1.119  -1.033  -1.020  -0.975  -0.863  -0.842  -0.830
 -0.796  -0.790  -0.338  -0.337  -0.322
 -- Virtual --
 -0.089   0.325   0.360   0.402   0.541   0.587   0.657   0.735
  1.187   1.202   1.233   1.276   1.281   1.375   1.470   1.490
  1.496   1.519   1.533   1.539   1.633   1.769   1.784   1.851
  1.865   1.926   1.964   1.971   2.002   2.043   2.053   2.104
  2.275   2.280   2.319   2.362   2.407   2.407   2.423   2.441
  2.716   2.741   2.853   2.958   3.088   3.144   3.391   3.414
  3.519   4.184   4.471   4.634   4.839   6.616
 --------------------------------------------------------------
 
          Ground-State Mulliken Net Atomic Charges

     Atom                 Charge (a.u.)    Spin (a.u.)
  --------------------------------------------------------
      1 C                     1.102822       0.000000
      2 F                    -0.000320       0.000000
      3 F                    -0.175800       0.000000
      4 F                    -0.852722       0.000000
      5 F                    -0.073980       0.000000
  --------------------------------------------------------
  Sum of atomic charges =     0.000000
  Sum of spin   charges =     0.000000

 -----------------------------------------------------------------
                    Cartesian Multipole Moments
 -----------------------------------------------------------------
    Charge (ESU x 10^10)
                 0.0000
    Dipole Moment (Debye)
         X       3.7348      Y       9.1922      Z      -3.7881
       Tot      10.6206
    Quadrupole Moments (Debye-Ang)
        XX     -28.3679     XY      -0.0030     YY      11.8729
        XZ       3.5738     YZ      -6.2748     ZZ     -23.8119
    Octopole Moments (Debye-Ang^2)
       XXX      57.0029    XXY     -56.0803    XYY       9.0751
       YYY     -46.6448    XXZ      -4.4129    XYZ       3.8246
       YYZ     -16.7451    XZZ      17.7498    YZZ     -52.7447
       ZZZ      -2.3459
    Hexadecapole Moments (Debye-Ang^3)
      XXXX    -152.8593   XXXY     109.8245   XXYY    -171.1796
      XYYY      79.5501   YYYY    -522.4170   XXXZ      10.2422
      XXYZ      -0.0413   XYYZ       8.0833   YYYZ     -42.5731
      XXZZ     -37.8912   XYZZ      35.0778   YYZZ    -156.5285
      XZZZ       6.3180   YZZZ       8.9818   ZZZZ     -78.2628
 -----------------------------------------------------------------
Archival summary:
1\1\tp-linux1\SP\HF\6-31G*\41\thomas\FriMar1705:07:012017FriMar1705:07:012017\0\\#,HF,6-31G*,\\0,1\F\C,1,1.16421\F,2,1.20711,1,117.042\F,2,1.29583,1,113.081,3,-131.287,0\F,1,2.49996,2,81.8903,3,64.6091,0\\HF=-435.318107\\@

 Total job time:  1995.68s(wall), 3300.32s(cpu) 
 Fri Mar 17 05:07:01 2017

        *************************************************************
        *                                                           *
        *  Thank you very much for using Q-Chem.  Have a nice day.  *
        *                                                           *
        *************************************************************


0 sent ACK to 0 
now end server 0 ... 
cleanup process ... done
