
Running Job 1 of 2 ddtraj4t41.inp
qchem ddtraj4t41.inp_16227.0 /scratch/qchem/qchem16227/ 1
/mnt/software/qchem/bin/mpi/mpirun_qchem -machinefile /mnt/software/qchem/bin/mpi/machines -np 1 /mnt/software/qchem/exe/qcprog.exe ddtraj4t41.inp_16227.0 /scratch/qchem/qchem16227/

Process 0 of 1 is on tp-linux1 - thread support 0
initial socket setup ...start
initial socket setup ...done 
now start server 0 ... 

cmd = ssh tp-linux1 /mnt/software/qchem/bin/get_hostid 864668611 > /scratch/qchem/qchem16227/lic.dat
                  Welcome to Q-Chem
     A Quantum Leap Into The Future Of Chemistry


 Q-Chem 4.3, Q-Chem, Inc., Pleasanton, CA (2015)

 Y. Shao,  Z. Gan,  E. Epifanovsky,  A. T. B. Gilbert,  M. Wormit,  
 J. Kussmann,  A. W. Lange,  A. Behn,  J. Deng,  X. Feng,  D. Ghosh,  
 M. Goldey,  P. R. Horn,  L. D. Jacobson,  I. Kaliman,  R. Z. Khaliullin,  
 T. Kus,  A. Landau,  J. Liu,  E. I. Proynov,  Y. M. Rhee,  R. M. Richard,  
 M. A. Rohrdanz,  R. P. Steele,  E. J. Sundstrom,  H. L. Woodcock III,  
 P. M. Zimmerman,  D. Zuev,  B. Albrecht,  E. Alguire,  B. Austin,  
 S. A. Baeppler,  G. J. O. Beran,  Y. A. Bernard,  E. Berquist,  
 K. Brandhorst,  K. B. Bravaya,  S. T. Brown,  D. Casanova,  C.-M. Chang,  
 Y. Chen,  S. H. Chien,  K. D. Closser,  D. L. Crittenden,  M. Diedenhofen,  
 R. A. DiStasio Jr.,  H. Do,  A. D. Dutoi,  R. G. Edgar,  P.-T. Fang,  
 S. Fatehi,  Q. Feng,  L. Fusti-Molnar,  A. Ghysels,  
 A. Golubeva-Zadorozhnaya,  J. Gomes,  A. Gunina,  M. W. D. Hanson-Heine,  
 P. H. P. Harbach,  A. W. Hauser,  E. G. Hohenstein,  Z. C. Holden,  K. Hui,  
 T.-C. Jagau,  H. Ji,  B. Kaduk,  K. Khistyaev,  Jaehoon Kim,  Jihan Kim,  
 R. A. King,  P. Klunzinger,  D. Kosenkov,  T. Kowalczyk,  C. M. Krauter,  
 K. U. Lao,  A. Laurent,  K. V. Lawler,  S. Lehtola,  S. V. Levchenko,  
 C. Y. Lin,  Y.-S. Lin,  F. Liu,  E. Livshits,  R. C. Lochan,  A. Luenser,  
 P. Manohar,  S. F. Manzer,  S.-P. Mao,  N. Mardirossian,  A. V. Marenich,  
 L. A. Martinez-Martinez,  S. A. Maurer,  N. J. Mayhall,  K. Nanda,  
 C. M. Oana,  R. Olivares-Amaya,  D. P. O'Neill,  J. A. Parkhill,  
 T. M. Perrine,  R. Peverati,  P. A. Pieniazek,  F. Plasser,  A. Prociuk,  
 D. R. Rehn,  E. Rosta,  N. J. Russ,  N. Sergueev,  S. M. Sharada,  
 S. Sharma,  D. W. Small,  A. Sodt,  T. Stauch,  T. Stein,  D. Stuck,  
 Y.-C. Su,  A. J. W. Thom,  T. Tsuchimochi,  L. Vogt,  O. Vydrov,  T. Wang,  
 M. A. Watson,  J. Wenzel,  A. White,  C. F. Williams,  V. Vanovschi,  
 S. Yeganeh,  S. R. Yost,  Z.-Q. You,  I. Y. Zhang,  X. Zhang,  Y. Zhao,  
 B. R. Brooks,  G. K. L. Chan,  D. M. Chipman,  C. J. Cramer,  
 W. A. Goddard III,  M. S. Gordon,  W. J. Hehre,  A. Klamt,  
 H. F. Schaefer III,  M. W. Schmidt,  C. D. Sherrill,  D. G. Truhlar,  
 A. Warshel,  X. Xu,  A. Aspuru-Guzik,  R. Baer,  A. T. Bell,  N. A. Besley,  
 J.-D. Chai,  A. Dreuw,  B. D. Dunietz,  T. R. Furlani,  S. R. Gwaltney,  
 C.-P. Hsu,  Y. Jung,  J. Kong,  D. S. Lambrecht,  W. Liang,  C. Ochsenfeld,  
 V. A. Rassolov,  L. V. Slipchenko,  J. E. Subotnik,  T. Van Voorhis,  
 J. M. Herbert,  A. I. Krylov,  P. M. W. Gill,  M. Head-Gordon

 Contributors to earlier versions of Q-Chem not listed above: 
 R. D. Adamson,  J. Baker,  E. F. C. Byrd,  A. K. Chakraborty,  C.-L. Cheng,  
 H. Dachsel,  R. J. Doerksen,  G. Hawkins,  A. Heyden,  S. Hirata,  
 G. Kedziora,  F. J. Keil,  C. Kelley,  P. P. Korambath,  W. Kurlancheek,  
 A. M. Lee,  M. S. Lee,  D. Liotard,  I. Lotan,  P. E. Maslen,  N. Nair,  
 D. Neuhauser,  R. Olson,  B. Peters,  J. Ritchie,  N. E. Schultz,  
 N. Shenvi,  A. C. Simmonett,  K. S. Thanthiriwatte,  Q. Wu,  W. Zhang

 Please cite Q-Chem as follows:
 Y. Shao et al., Mol. Phys. 113, 184-215 (2015)
 DOI: 10.1080/00268976.2014.952696

 Q-Chem 4.3.0 for Intel X86 Linux

 Parts of Q-Chem use Armadillo 5.200.1 (Boston Tea Smuggler).
 http://arma.sourceforge.net/

 Q-Chem begins on Mon Mar 20 01:48:35 2017  

Host: 
0

     Scratch files written to /scratch/qchem/qchem16227//
 Nov1815 1189b_ 19540  19532 5443   
 Parallel job on  1  processors
Processing $rem in /mnt/software/qchem/config/preferences.
 MEM_TOTAL  2000 

Checking the input file for inconsistencies... 	...done.

--------------------------------------------------------------
User input:
--------------------------------------------------------------
$comment
XAS calculation for the 2b valence excited for water using cvs-adc(2)-x + 6-311+G* basis set
job 1 - determination of HF orbitals
$end

$molecule
0 1
6  -0.476883  2.681896  -0.220299
9  0.802794  2.73987  -0.195972
9  -1.0319  3.320966  0.717031
9  -1.750818  0.290604  0.97028
9  -0.941544  2.824068  -1.353811
$end

$rem
jobtype      sp
sym_ignore true
exchange     hf
basis        6-31G*
unrestricted true
$end

--------------------------------------------------------------
 ----------------------------------------------------------------
             Standard Nuclear Orientation (Angstroms)
    I     Atom           X                Y                Z
 ----------------------------------------------------------------
    1      C      -0.4768830000     2.6818960000    -0.2202990000
    2      F       0.8027940000     2.7398700000    -0.1959720000
    3      F      -1.0319000000     3.3209660000     0.7170310000
    4      F      -1.7508180000     0.2906040000     0.9702800000
    5      F      -0.9415440000     2.8240680000    -1.3538110000
 ----------------------------------------------------------------
 Nuclear Repulsion Energy =   175.8021559807 hartrees
 There are       21 alpha and       21 beta electrons
 Requested basis set is 6-31G(d)
 There are 20 shells and 75 basis functions

 Total QAlloc Memory Limit   2000 MB
 Mega-Array Size        61 MB
 MEM_STATIC part        62 MB

                       Distance Matrix (Angstroms)
             C (  1)   F (  2)   F (  3)   F (  4)
   F (  2)  1.281221
   F (  3)  1.262950  2.130105
   F (  4)  2.959504  3.725585  3.124752
   F (  5)  1.233277  2.095327  2.131539  3.531963
 
 tim1(1): 
  0.000000000000000E+000
 tim1(2): 
  0.000000000000000E+000
 A cutoff of  1.0D-08 yielded    180 shell pairs
 There are      2722 function pairs
 
 -------------------------------------------------------
 OpenMP Integral Computing Module                       
 Release: version 1.0, May 2013, Q-Chem Inc. Pittsburgh 
 -------------------------------------------------------
 Integral Job Info:
 Integral job number is                      11
 Integral operator is                         1
 short-range coefficients                     0
 long-range coefficients              100000000
 Omega coefficients                           0
 if combine SR and LR in K                    0
 Integral screening is                        0
 Integral computing path is                   2
 max size of driver memory is            800000
 size of driver memory is                593474
 size of scratch memory is              2260544
 max col of scratch BK array               1296
 max len of scratch array in speh3          155
 max len of scratch index in speh4           18
 max int batch size is                      520
 min int batch size is                       52
 fixed nKL is                                52
 max L of basis functions is                  2
 order of int derivative is                   0
 number of shells is                         20
 number of basis is                          75
 number of cartesian basis is                75
 number of contracted shell pairs           180
 number of primitive shell pairs            881
 maxK2 (contraction) of shell pair           36
 max number of K2 of shell pair               1
 max number of CS2 of shell pair             28
 max number of PS2 of shell pair            180
 mem total for path MDJ                   17246
 -------------------------------------------------------
 Smallest overlap matrix eigenvalue = 3.50E-03

 Scale SEOQF with 1.000000e-01/1.000000e-01/1.000000e+00

 Standard Electronic Orientation quadrupole field applied
 Nucleus-field energy     =    -0.0000000103 hartrees
 Guess from superposition of atomic densities
 Warning:  Energy on first SCF cycle will be non-variational
 An unrestricted Hartree-Fock SCF calculation will be
 performed using Pulay DIIS extrapolation
 SCF converges when DIIS error is below 1.0E-05
 using 8 threads for integral computing 
 ---------------------------------------
  Cycle       Energy         DIIS Error
 ---------------------------------------
    1    -436.0969669558      8.44E-02
    2    -435.0653280850      2.14E-02
    3    -433.9977223486      3.95E-02
    4    -435.2568847805      1.12E-02
    5    -435.2975153803      6.64E-03
    6    -435.3283190741      2.15E-03
    7    -435.3388693686      9.19E-04
    8    -435.3435755939      6.89E-04
    9    -435.3442067896      3.97E-04
   10    -435.3444183555      8.21E-05
   11    -435.3444515213      3.99E-05
   12    -435.3444529691      5.21E-06 Convergence criterion met
 ---------------------------------------
 <S^2> = 0.0000
 SCF time:  CPU 11.43 s  wall 2.91 s
 SCF   energy in the final basis set = -435.3444529691
 Total energy in the final basis set = -435.3444529691
 
 --------------------------------------------------------------
 
                    Orbital Energies (a.u.)
 --------------------------------------------------------------
 
 Alpha MOs
 -- Occupied --
-26.533 -26.515 -26.511 -26.075 -11.734  -1.930  -1.830  -1.809
 -1.299  -1.109  -1.008  -1.004  -0.952  -0.856  -0.848  -0.825
 -0.815  -0.799  -0.416  -0.416  -0.349
 -- Virtual --
 -0.070   0.290   0.340   0.361   0.577   0.588   0.618   0.630
  1.196   1.213   1.224   1.254   1.279   1.326   1.488   1.495
  1.501   1.505   1.514   1.523   1.636   1.667   1.679   1.779
  1.837   1.852   1.953   1.972   1.987   2.043   2.050   2.071
  2.163   2.200   2.215   2.273   2.343   2.346   2.346   2.351
  2.381   2.695   2.724   2.753   3.048   3.067   3.315   3.332
  3.364   4.022   4.451   4.622   4.683   4.897
 
 Beta MOs
 -- Occupied --
-26.533 -26.515 -26.511 -26.075 -11.734  -1.930  -1.830  -1.809
 -1.299  -1.109  -1.008  -1.004  -0.952  -0.856  -0.848  -0.825
 -0.815  -0.799  -0.416  -0.416  -0.349
 -- Virtual --
 -0.070   0.290   0.340   0.361   0.577   0.588   0.618   0.630
  1.196   1.213   1.224   1.254   1.279   1.326   1.488   1.495
  1.501   1.505   1.514   1.523   1.636   1.667   1.679   1.779
  1.837   1.852   1.953   1.972   1.987   2.043   2.050   2.071
  2.163   2.200   2.215   2.273   2.343   2.346   2.346   2.351
  2.381   2.695   2.724   2.753   3.048   3.067   3.315   3.332
  3.364   4.022   4.451   4.622   4.683   4.897
 --------------------------------------------------------------
 
          Ground-State Mulliken Net Atomic Charges

     Atom                 Charge (a.u.)    Spin (a.u.)
  --------------------------------------------------------
      1 C                     1.145802       0.000000
      2 F                    -0.196939       0.000000
      3 F                    -0.158078       0.000000
      4 F                    -0.653149       0.000000
      5 F                    -0.137636       0.000000
  --------------------------------------------------------
  Sum of atomic charges =     0.000000
  Sum of spin   charges =     0.000000

 -----------------------------------------------------------------
                    Cartesian Multipole Moments
 -----------------------------------------------------------------
    Charge (ESU x 10^10)
                 0.0000
    Dipole Moment (Debye)
         X       3.7485      Y       7.2192      Z      -3.7661
       Tot       8.9639
    Quadrupole Moments (Debye-Ang)
        XX     -31.9875     XY      -2.5574     YY      -1.4210
        XZ       5.5636     YZ      -3.1831     ZZ     -25.8433
    Octopole Moments (Debye-Ang^2)
       XXX      66.2177    XXY     -54.8118    XYY       5.4059
       YYY     -99.2934    XXZ      -9.4748    XYZ       3.0758
       YYZ      -6.7356    XZZ      21.1135    YZZ     -53.5066
       ZZZ      -4.5218
    Hexadecapole Moments (Debye-Ang^3)
      XXXX    -213.7435   XXXY      83.0759   XXYY    -179.8718
      XYYY      45.5884   YYYY    -747.3572   XXXZ      35.8043
      XXYZ       5.9147   XYYZ      10.2830   YYYZ      12.2672
      XXZZ     -56.6674   XYZZ      26.2562   YYZZ    -168.1844
      XZZZ      25.7894   YZZZ      27.6412   ZZZZ    -108.6712
 -----------------------------------------------------------------
Archival summary:
1\1\tp-linux1\SP\HF\6-31G*\41\thomas\MonMar2001:48:382017MonMar2001:48:382017\0\\#,HF,6-31G*,\\0,1\C\F,1,1.23328\F,1,1.26295,2,117.273\F,1,1.28122,2,112.864,3,135.086,0\F,1,2.9595,2,107.5,3,-93.9855,0\\HF=-435.344453\\@

 Total job time:  3.24s(wall), 13.17s(cpu) 
 Mon Mar 20 01:48:38 2017

        *************************************************************
        *                                                           *
        *  Thank you very much for using Q-Chem.  Have a nice day.  *
        *                                                           *
        *************************************************************


0 sent ACK to 0 
now end server 0 ... 
cleanup process ... done

Running Job 2 of 2 ddtraj4t41.inp
qchem ddtraj4t41.inp_16227.1 /scratch/qchem/qchem16227/ 1
/mnt/software/qchem/bin/mpi/mpirun_qchem -machinefile /mnt/software/qchem/bin/mpi/machines -np 1 /mnt/software/qchem/exe/qcprog.exe ddtraj4t41.inp_16227.1 /scratch/qchem/qchem16227/

Process 0 of 1 is on tp-linux1 - thread support 0
initial socket setup ...start
initial socket setup ...done 
now start server 0 ... 

cmd = ssh tp-linux1 /mnt/software/qchem/bin/get_hostid 1475660642 > /scratch/qchem/qchem16227/lic.dat
                  Welcome to Q-Chem
     A Quantum Leap Into The Future Of Chemistry


 Q-Chem 4.3, Q-Chem, Inc., Pleasanton, CA (2015)

 Y. Shao,  Z. Gan,  E. Epifanovsky,  A. T. B. Gilbert,  M. Wormit,  
 J. Kussmann,  A. W. Lange,  A. Behn,  J. Deng,  X. Feng,  D. Ghosh,  
 M. Goldey,  P. R. Horn,  L. D. Jacobson,  I. Kaliman,  R. Z. Khaliullin,  
 T. Kus,  A. Landau,  J. Liu,  E. I. Proynov,  Y. M. Rhee,  R. M. Richard,  
 M. A. Rohrdanz,  R. P. Steele,  E. J. Sundstrom,  H. L. Woodcock III,  
 P. M. Zimmerman,  D. Zuev,  B. Albrecht,  E. Alguire,  B. Austin,  
 S. A. Baeppler,  G. J. O. Beran,  Y. A. Bernard,  E. Berquist,  
 K. Brandhorst,  K. B. Bravaya,  S. T. Brown,  D. Casanova,  C.-M. Chang,  
 Y. Chen,  S. H. Chien,  K. D. Closser,  D. L. Crittenden,  M. Diedenhofen,  
 R. A. DiStasio Jr.,  H. Do,  A. D. Dutoi,  R. G. Edgar,  P.-T. Fang,  
 S. Fatehi,  Q. Feng,  L. Fusti-Molnar,  A. Ghysels,  
 A. Golubeva-Zadorozhnaya,  J. Gomes,  A. Gunina,  M. W. D. Hanson-Heine,  
 P. H. P. Harbach,  A. W. Hauser,  E. G. Hohenstein,  Z. C. Holden,  K. Hui,  
 T.-C. Jagau,  H. Ji,  B. Kaduk,  K. Khistyaev,  Jaehoon Kim,  Jihan Kim,  
 R. A. King,  P. Klunzinger,  D. Kosenkov,  T. Kowalczyk,  C. M. Krauter,  
 K. U. Lao,  A. Laurent,  K. V. Lawler,  S. Lehtola,  S. V. Levchenko,  
 C. Y. Lin,  Y.-S. Lin,  F. Liu,  E. Livshits,  R. C. Lochan,  A. Luenser,  
 P. Manohar,  S. F. Manzer,  S.-P. Mao,  N. Mardirossian,  A. V. Marenich,  
 L. A. Martinez-Martinez,  S. A. Maurer,  N. J. Mayhall,  K. Nanda,  
 C. M. Oana,  R. Olivares-Amaya,  D. P. O'Neill,  J. A. Parkhill,  
 T. M. Perrine,  R. Peverati,  P. A. Pieniazek,  F. Plasser,  A. Prociuk,  
 D. R. Rehn,  E. Rosta,  N. J. Russ,  N. Sergueev,  S. M. Sharada,  
 S. Sharma,  D. W. Small,  A. Sodt,  T. Stauch,  T. Stein,  D. Stuck,  
 Y.-C. Su,  A. J. W. Thom,  T. Tsuchimochi,  L. Vogt,  O. Vydrov,  T. Wang,  
 M. A. Watson,  J. Wenzel,  A. White,  C. F. Williams,  V. Vanovschi,  
 S. Yeganeh,  S. R. Yost,  Z.-Q. You,  I. Y. Zhang,  X. Zhang,  Y. Zhao,  
 B. R. Brooks,  G. K. L. Chan,  D. M. Chipman,  C. J. Cramer,  
 W. A. Goddard III,  M. S. Gordon,  W. J. Hehre,  A. Klamt,  
 H. F. Schaefer III,  M. W. Schmidt,  C. D. Sherrill,  D. G. Truhlar,  
 A. Warshel,  X. Xu,  A. Aspuru-Guzik,  R. Baer,  A. T. Bell,  N. A. Besley,  
 J.-D. Chai,  A. Dreuw,  B. D. Dunietz,  T. R. Furlani,  S. R. Gwaltney,  
 C.-P. Hsu,  Y. Jung,  J. Kong,  D. S. Lambrecht,  W. Liang,  C. Ochsenfeld,  
 V. A. Rassolov,  L. V. Slipchenko,  J. E. Subotnik,  T. Van Voorhis,  
 J. M. Herbert,  A. I. Krylov,  P. M. W. Gill,  M. Head-Gordon

 Contributors to earlier versions of Q-Chem not listed above: 
 R. D. Adamson,  J. Baker,  E. F. C. Byrd,  A. K. Chakraborty,  C.-L. Cheng,  
 H. Dachsel,  R. J. Doerksen,  G. Hawkins,  A. Heyden,  S. Hirata,  
 G. Kedziora,  F. J. Keil,  C. Kelley,  P. P. Korambath,  W. Kurlancheek,  
 A. M. Lee,  M. S. Lee,  D. Liotard,  I. Lotan,  P. E. Maslen,  N. Nair,  
 D. Neuhauser,  R. Olson,  B. Peters,  J. Ritchie,  N. E. Schultz,  
 N. Shenvi,  A. C. Simmonett,  K. S. Thanthiriwatte,  Q. Wu,  W. Zhang

 Please cite Q-Chem as follows:
 Y. Shao et al., Mol. Phys. 113, 184-215 (2015)
 DOI: 10.1080/00268976.2014.952696

 Q-Chem 4.3.0 for Intel X86 Linux

 Parts of Q-Chem use Armadillo 5.200.1 (Boston Tea Smuggler).
 http://arma.sourceforge.net/

 Q-Chem begins on Mon Mar 20 01:49:33 2017  

Host: 
0

     Scratch files written to /scratch/qchem/qchem16227//
 Nov1815 1189b_ 19540  19532 5443   
 Parallel job on  1  processors
Processing $rem in /mnt/software/qchem/config/preferences.
 MEM_TOTAL  2000 

Checking the input file for inconsistencies... 	...done.

--------------------------------------------------------------
User input:
--------------------------------------------------------------

$comment
job3 - cvs-adc(2) calculation
$end

$molecule
read
$end

$rem
mem_total 3000
mem_static 1500
sym_ignore true
scf_guess read
method cvs-adc(2)
basis 6-31G*
ee_singlets 20
cc_rest_occ 5                  !only excitations from the lowest N orbitals
unrestricted  true
max_scf_cycles 200
$end
--------------------------------------------------------------
 ----------------------------------------------------------------
             Standard Nuclear Orientation (Angstroms)
    I     Atom           X                Y                Z
 ----------------------------------------------------------------
    1      C      -0.4768830000     2.6818960000    -0.2202990000
    2      F       0.8027940000     2.7398700000    -0.1959720000
    3      F      -1.0319000000     3.3209660000     0.7170310000
    4      F      -1.7508180000     0.2906040000     0.9702800000
    5      F      -0.9415440000     2.8240680000    -1.3538110000
 ----------------------------------------------------------------
 Nuclear Repulsion Energy =   175.8021559807 hartrees
 There are       21 alpha and       21 beta electrons
 Requested basis set is 6-31G(d)
 There are 20 shells and 75 basis functions

 Total QAlloc Memory Limit   3000 MB
 Mega-Array Size      1467 MB
 MEM_STATIC part      1500 MB

                       Distance Matrix (Angstroms)
             C (  1)   F (  2)   F (  3)   F (  4)
   F (  2)  1.281221
   F (  3)  1.262950  2.130105
   F (  4)  2.959504  3.725585  3.124752
   F (  5)  1.233277  2.095327  2.131539  3.531963
 
 tim1(1): 
  0.000000000000000E+000
 tim1(2): 
  0.000000000000000E+000
 A cutoff of  1.0D-11 yielded    190 shell pairs
 There are      2894 function pairs
 
 -------------------------------------------------------
 OpenMP Integral Computing Module                       
 Release: version 1.0, May 2013, Q-Chem Inc. Pittsburgh 
 -------------------------------------------------------
 Integral Job Info:
 Integral job number is                      11
 Integral operator is                         1
 short-range coefficients                     0
 long-range coefficients              100000000
 Omega coefficients                           0
 if combine SR and LR in K                    0
 Integral screening is                        0
 Integral computing path is                   2
 max size of driver memory is            800000
 size of driver memory is                593474
 size of scratch memory is              2260544
 max col of scratch BK array               1296
 max len of scratch array in speh3          155
 max len of scratch index in speh4           18
 max int batch size is                      520
 min int batch size is                       52
 fixed nKL is                                52
 max L of basis functions is                  2
 order of int derivative is                   0
 number of shells is                         20
 number of basis is                          75
 number of cartesian basis is                75
 number of contracted shell pairs           190
 number of primitive shell pairs            957
 maxK2 (contraction) of shell pair           36
 max number of K2 of shell pair               1
 max number of CS2 of shell pair             32
 max number of PS2 of shell pair            192
 mem total for path MDJ                   19336
 -------------------------------------------------------
 Smallest overlap matrix eigenvalue = 3.50E-03

 Scale SEOQF with 1.000000e-01/1.000000e-01/1.000000e+00

 Standard Electronic Orientation quadrupole field applied
 Nucleus-field energy     =    -0.0000000103 hartrees
 Guess MOs from SCF MO coefficient file
 Reading MOs from coefficient file
 Reading MOs from coefficient file
 An unrestricted Hartree-Fock SCF calculation will be
 performed using Pulay DIIS extrapolation
 SCF converges when DIIS error is below 1.0E-08
 using 8 threads for integral computing 
 ---------------------------------------
  Cycle       Energy         DIIS Error
 ---------------------------------------
    1    -435.3444530893      3.48E-06
    2    -435.3444530962      4.43E-06
    3    -435.3444531059      1.07E-06
    4    -435.3444531107      6.20E-07
    5    -435.3444531145      4.06E-07
    6    -435.3444531157      2.28E-07
    7    -435.3444531161      9.08E-08
    8    -435.3444531161      2.68E-08
    9    -435.3444531161      5.88E-09 Convergence criterion met
 ---------------------------------------
 <S^2> = 0.0000
 SCF time:  CPU 11.14 s  wall 11.98 s
 SCF   energy in the final basis set = -435.3444531161
 Total energy in the final basis set = -435.3444531161
================================================================================
|                                                                              |
|                                 A D C  M A N                                 |
|                                                                              |
 ------------------------------------------------------------------------------ 
|                                                                              |
| Components:                                                                  |
|                                                                              |
| - libvmm - 1.2-release                                                       |
|   Authors:                                                                   |
|   Evgeny Epifanovsky, Ilya Kaliman                                           |
|                                                                              |
| - libtensor - 2.4-trunk                                                      |
|   Authors:                                                                   |
|   Evgeny Epifanovsky, Michael Wormit, Dmitry Zuev, Sam Manzer                |
|                                                                              |
| - libwfa - 1.1-beta                                                          |
|   Authors:                                                                   |
|   Felix Plasser, Stefanie Baeppler, Benjamin Thomitzni, Michael Wormit       |
|                                                                              |
| - libadc - 1.0-beta                                                          |
|   Authors:                                                                   |
|   Michael Wormit, Philipp H. P. Harbach, Caroline Krauter, Dirk Rehn,        |
|   Matthias Schneider, Jan Wenzel                                             |
|                                                                              |
| - adcman - 2.4-beta                                                          |
|   Authors:                                                                   |
|   Michael Wormit, Philipp H. P. Harbach, Caroline Krauter, Dirk Rehn,        |
|   Jan Wenzel, Andreas Dreuw                                                  |
|                                                                              |
| Authors of earlier versions of ADCMAN:                                       |
| Andreas Dreuw, Jan Hendrik Starcke, Dirk Rehn, Michael Wormit                |
|                                                                              |
================================================================================

 
 Alpha MOs, Unrestricted
 -- Occupied --                  
-26.533 -26.515 -26.511 -26.075 -11.734  -1.930  -1.830  -1.809
  1 A     2 A     3 A     4 A     5 A     6 A     7 A     8 A                  
 -1.299  -1.109  -1.008  -1.004  -0.952  -0.856  -0.848  -0.825
  9 A    10 A    11 A    12 A    13 A    14 A    15 A    16 A                  
 -0.815  -0.799  -0.416  -0.416  -0.349
 17 A    18 A    19 A    20 A    21 A                                          
 -- Virtual --                   
 -0.070   0.290   0.340   0.361   0.577   0.588   0.618   0.630
 22 A    23 A    24 A    25 A    26 A    27 A    28 A    29 A                  
  1.196   1.213   1.224   1.254   1.279   1.326   1.488   1.495
 30 A    31 A    32 A    33 A    34 A    35 A    36 A    37 A                  
  1.501   1.505   1.514   1.523   1.636   1.667   1.679   1.779
 38 A    39 A    40 A    41 A    42 A    43 A    44 A    45 A                  
  1.837   1.852   1.953   1.972   1.987   2.043   2.050   2.071
 46 A    47 A    48 A    49 A    50 A    51 A    52 A    53 A                  
  2.163   2.200   2.215   2.274   2.343   2.346   2.346   2.351
 54 A    55 A    56 A    57 A    58 A    59 A    60 A    61 A                  
  2.381   2.695   2.724   2.753   3.048   3.067   3.315   3.332
 62 A    63 A    64 A    65 A    66 A    67 A    68 A    69 A                  
  3.364   4.022   4.451   4.622   4.683   4.897
 70 A    71 A    72 A    73 A    74 A    75 A                                  
 
 Beta MOs, Unrestricted
 -- Occupied --                  
-26.533 -26.515 -26.511 -26.075 -11.734  -1.930  -1.830  -1.809
  1 A     2 A     3 A     4 A     5 A     6 A     7 A     8 A                  
 -1.299  -1.109  -1.008  -1.004  -0.952  -0.856  -0.848  -0.825
  9 A    10 A    11 A    12 A    13 A    14 A    15 A    16 A                  
 -0.815  -0.799  -0.416  -0.416  -0.349
 17 A    18 A    19 A    20 A    21 A                                          
 -- Virtual --                   
 -0.070   0.290   0.340   0.361   0.577   0.588   0.618   0.630
 22 A    23 A    24 A    25 A    26 A    27 A    28 A    29 A                  
  1.196   1.213   1.224   1.254   1.279   1.326   1.488   1.495
 30 A    31 A    32 A    33 A    34 A    35 A    36 A    37 A                  
  1.501   1.505   1.514   1.523   1.636   1.667   1.679   1.779
 38 A    39 A    40 A    41 A    42 A    43 A    44 A    45 A                  
  1.837   1.852   1.953   1.972   1.987   2.043   2.050   2.071
 46 A    47 A    48 A    49 A    50 A    51 A    52 A    53 A                  
  2.163   2.200   2.215   2.274   2.343   2.346   2.346   2.351
 54 A    55 A    56 A    57 A    58 A    59 A    60 A    61 A                  
  2.381   2.695   2.724   2.753   3.048   3.067   3.315   3.332
 62 A    63 A    64 A    65 A    66 A    67 A    68 A    69 A                  
  3.364   4.022   4.451   4.622   4.683   4.897
 70 A    71 A    72 A    73 A    74 A    75 A                                  
 

--------------------------------------------------------------------------------
                                   HF Summary                                   
--------------------------------------------------------------------------------
  Energy:                                                 -435.3444531161 a.u.
  Dip. moment [a.u.]:                  [ -56.569213,  183.620243,    1.323201]
  Total dipole [Debye]:                                             488.374174
  <r^2> [a.u.]:                        [ 210.603850, 1009.932903,  127.175775]
  Total <r^2> [a.u.]:                                              1347.712528
--------------------------------------------------------------------------------

--------------------------------------------------------------------------------
                                 MP(2) Summary                                  
--------------------------------------------------------------------------------
  Energy contribution:                                      -0.8504563794 a.u.
  Total energy:                                           -436.1949094955 a.u.
  Dip. moment [a.u.]:                  [ -55.565191,  185.289748,    0.390235]
  Total dipole [Debye]:                                             491.681443
  <r^2> [a.u.]:                        [ 206.269122, 1018.131261,  125.786068]
  Total <r^2> [a.u.]:                                              1350.186450
--------------------------------------------------------------------------------
  Starting Davidson ... 
--------------------------------------------------------------------------------
   It NVec Conv  Avg. Norm  Max. Norm  Conv. states           Remark
--------------------------------------------------------------------------------
        20    0  2.057e-01  1.049e+00 10.9823 n n n n n n n n Guess.
    1   40    0  7.823e-02  8.806e-01 10.8106 n n n n n n n n 
    2   60    0  2.091e-02  3.129e-01 10.8084 n n n n n n n n 
    3   80    0  6.472e-03  8.164e-02 10.8083 n n n n n n n n 
    4  100    0  4.895e-03  6.745e-02 10.8083 n n n n n n n n 
    5   40    0  1.913e-03  2.928e-02 10.8083 n n n n n n n n Subspace collapsed.
    6   60    0  4.272e-03  8.077e-02 10.8083 n n n n n n n n 
    7   80    0  4.037e-03  7.103e-02 10.8083 n n n n n n n n 
    8  100    1  2.658e-03  4.267e-02 10.8083 y n n n n n n n 
    9   40    6  1.468e-03  2.483e-02 10.8083 y y n y y n y y Subspace collapsed.
   10   60    6  8.753e-04  1.508e-02 10.8083 y y n y y n y y 
   11   80    9  6.493e-04  1.123e-02 10.8083 y y y y y y y y 
   12  100   10  8.320e-04  1.449e-02 10.8083 y y y y y y y y 
   13   40   14  4.609e-04  7.959e-03 10.8083 y y y y y y y y Subspace collapsed.
   14   60   15  4.570e-04  7.356e-03 10.8083 y y y y y y y y 
   15   80   16  4.734e-04  6.860e-03 10.8083 y y y y y y y y 
   16  100   16  5.633e-04  8.832e-03 10.8083 y y y y y y y y 
   17   39   17  3.272e-04  5.051e-03 10.8083 y y y y y y y y Subspace collapsed.
   18   58   18  2.989e-04  5.149e-03 10.8083 y y y y y y y y 
   19   59   18  2.989e-04  5.149e-03 10.8083 y y y y y y y y 
   20   60   18  2.952e-04  5.063e-03 10.8083 y y y y y y y y 
   21   62   18  2.941e-04  5.047e-03 10.8083 y y y y y y y y 
   22   64   18  2.977e-04  5.123e-03 10.8083 y y y y y y y y 
   23   77   18  2.987e-04  5.407e-03 10.8083 y y y y y y y y 
   24   89   18  3.350e-04  5.916e-03 10.8083 y y y y y y y y 
   25  100   18  4.022e-04  7.270e-03 10.8083 y y y y y y y y 
   26   32   18  1.823e-04  3.028e-03 10.8083 y y y y y y y y Subspace collapsed.
   27   32   18  1.823e-04  3.028e-03 10.8083 y y y y y y y y 
   28   51   18  1.736e-04  2.706e-03 10.8083 y y y y y y y y 
   29   64   18  1.687e-04  2.524e-03 10.8083 y y y y y y y y 
   30   76   18  1.435e-04  2.318e-03 10.8083 y y y y y y y y 
   31   81   18  1.464e-04  2.341e-03 10.8083 y y y y y y y y 
   32   86   18  1.492e-04  2.325e-03 10.8083 y y y y y y y y 
   33   86   18  1.492e-04  2.325e-03 10.8083 y y y y y y y y 
   34   87   18  1.492e-04  2.327e-03 10.8083 y y y y y y y y 
   35   87   18  1.492e-04  2.327e-03 10.8083 y y y y y y y y 
   36   88   18  1.493e-04  2.331e-03 10.8083 y y y y y y y y 
   37   88   18  1.493e-04  2.331e-03 10.8083 y y y y y y y y 
   38   88   18  1.493e-04  2.331e-03 10.8083 y y y y y y y y 
   39  100   18  1.476e-04  2.322e-03 10.8083 y y y y y y y y 
   40   20   18  1.476e-04  2.322e-03 10.8083 y y y y y y y y Subspace collapsed.
   41   20   18  1.476e-04  2.322e-03 10.8083 y y y y y y y y 
   42   21   18  1.473e-04  2.323e-03 10.8083 y y y y y y y y 
   43   28   18  1.056e-04  1.708e-03 10.8083 y y y y y y y y 
   44   36   18  1.031e-04  1.527e-03 10.8083 y y y y y y y y 
   45   42   18  1.001e-04  1.559e-03 10.8083 y y y y y y y y 
   46   48   18  1.087e-04  1.705e-03 10.8083 y y y y y y y y 
   47   48   18  1.087e-04  1.705e-03 10.8083 y y y y y y y y 
   48   49   18  1.087e-04  1.705e-03 10.8083 y y y y y y y y 
   49   49   18  1.087e-04  1.705e-03 10.8083 y y y y y y y y 
   50   49   18  1.087e-04  1.705e-03 10.8083 y y y y y y y y 
   51   69   18  1.337e-04  1.923e-03 10.8083 y y y y y y y y 
   52   74   18  8.083e-05  1.210e-03 10.8083 y y y y y y y y 
   53   79   18  5.943e-05  1.074e-03 10.8083 y y y y y y y y 
   54   79   18  5.943e-05  1.074e-03 10.8083 y y y y y y y y 
   55   79   18  5.943e-05  1.074e-03 10.8083 y y y y y y y y 
   56   79   18  5.943e-05  1.074e-03 10.8083 y y y y y y y y 
   57   99   18  4.261e-05  7.907e-04 10.8083 y y y y y y y y 
   58  100   18  4.179e-05  7.631e-04 10.8083 y y y y y y y y 
   59   24   18  2.513e-05  4.577e-04 10.8083 y y y y y y y y Subspace collapsed.
--------------------------------------------------------------------------------
  Davidson Summary: 
 ------------------------------------------------------------
  State  0: excitation energy =  10.8083 a.u.   (converged)
  State  1: excitation energy =  10.8756 a.u.   (converged)
  State  2: excitation energy =  11.1272 a.u.   (converged)
  State  3: excitation energy =  11.1485 a.u.   (converged)
  State  4: excitation energy =  11.1773 a.u.   (converged)
  State  5: excitation energy =  11.2033 a.u.   (converged)
  State  6: excitation energy =  11.2204 a.u.   (converged)
  State  7: excitation energy =  11.2500 a.u.   (converged)
  State  8: excitation energy =  11.5094 a.u.   (converged)
  State  9: excitation energy =  11.5231 a.u.   (converged)
  State 10: excitation energy =  11.5362 a.u.   (converged)
  State 11: excitation energy =  11.5373 a.u.   (converged)
  State 12: excitation energy =  11.5518 a.u.   (converged)
  State 13: excitation energy =  11.5561 a.u.   (converged)
  State 14: excitation energy =  11.5568 a.u.   (converged)
  State 15: excitation energy =  11.5932 a.u.   (converged)
  State 16: excitation energy =  11.9563 a.u.   (converged)
  State 17: excitation energy =  11.9590 a.u.   (converged)
  State 18: excitation energy =  12.1767 a.u.   (not converged)
  State 19: excitation energy =  12.1816 a.u.   (not converged)
 ------------------------------------------------------------


--------------------------------------------------------------------------------
                             Excited State Summary
--------------------------------------------------------------------------------

  Excited state  1 (A)                                             [converged]
  ----------------------------------------------------------------------------
  Term symbol:  2 (-) A                                     R^2 =  3.06968e-13

  Total energy:                                           -425.3866268647 a.u.
  Excitation energy:                                             294.108328 eV

  Osc. strength:                                                      0.000000
  Trans. dip. moment [a.u.]:           [   0.000000,    0.000000,   -0.000000]
  <i|r^2|0> [a.u.]:                    [  -0.000000,    0.000000,    0.000000]

  V1^2 = 0.9481, V2^2 = 0.0519

  Important amplitudes:
     core i     occ j      vir a      vir b          v   
    ------------------------------------------------------
     5 (A) B              22 (A) B                 0.6514
     5 (A) A              22 (A) A                -0.6514
    ------------------------------------------------------
  ----------------------------------------------------------------------------


  Excited state  2 (A)                                             [converged]
  ----------------------------------------------------------------------------
  Term symbol:  3 (-) A                                     R^2 =  6.51476e-13

  Total energy:                                           -425.3193395866 a.u.
  Excitation energy:                                             295.939308 eV

  Osc. strength:                                                      0.073764
  Trans. dip. moment [a.u.]:           [  -0.018865,   -0.096679,    0.021704]
  <i|r^2|0> [a.u.]:                    [   0.041375,   -0.970871,   -0.010670]

  V1^2 = 0.9394, V2^2 = 0.0606

  Important amplitudes:
     core i     occ j      vir a      vir b          v   
    ------------------------------------------------------
     5 (A) A              22 (A) A                -0.6608
     5 (A) B              22 (A) B                -0.6608
    ------------------------------------------------------
  ----------------------------------------------------------------------------


  Excited state  3 (A)                                             [converged]
  ----------------------------------------------------------------------------
  Term symbol:  4 (-) A                                     R^2 =  2.10912e-13

  Total energy:                                           -425.0676885540 a.u.
  Excitation energy:                                             302.787081 eV

  Osc. strength:                                                      0.000000
  Trans. dip. moment [a.u.]:           [   0.000000,   -0.000000,    0.000000]
  <i|r^2|0> [a.u.]:                    [  -0.000000,   -0.000000,   -0.000000]

  V1^2 = 0.9439, V2^2 = 0.0561

  Important amplitudes:
     core i     occ j      vir a      vir b          v   
    ------------------------------------------------------
     5 (A) A              24 (A) A                 0.4895
     5 (A) B              24 (A) B                -0.4895
    ------------------------------------------------------
  ----------------------------------------------------------------------------


  Excited state  4 (A)                                             [converged]
  ----------------------------------------------------------------------------
  Term symbol:  5 (-) A                                     R^2 =  4.99282e-13

  Total energy:                                           -425.0464488353 a.u.
  Excitation energy:                                             303.365043 eV

  Osc. strength:                                                      0.000000
  Trans. dip. moment [a.u.]:           [  -0.000000,   -0.000000,    0.000000]
  <i|r^2|0> [a.u.]:                    [   0.000000,   -0.000000,   -0.000000]

  V1^2 = 0.9317, V2^2 = 0.0683

  Important amplitudes:
     core i     occ j      vir a      vir b          v   
    ------------------------------------------------------
     5 (A) B              23 (A) B                -0.4595
     5 (A) A              23 (A) A                 0.4595
    ------------------------------------------------------
  ----------------------------------------------------------------------------


  Excited state  5 (A)                                             [converged]
  ----------------------------------------------------------------------------
  Term symbol:  6 (-) A                                     R^2 =  2.55343e-13

  Total energy:                                           -425.0176155694 a.u.
  Excitation energy:                                             304.149636 eV

  Osc. strength:                                                      0.000000
  Trans. dip. moment [a.u.]:           [  -0.000000,   -0.000000,   -0.000000]
  <i|r^2|0> [a.u.]:                    [   0.000000,   -0.000000,    0.000000]

  V1^2 = 0.9422, V2^2 = 0.0578

  Important amplitudes:
     core i     occ j      vir a      vir b          v   
    ------------------------------------------------------
     5 (A) A              25 (A) A                -0.4782
     5 (A) B              25 (A) B                 0.4782
    ------------------------------------------------------
  ----------------------------------------------------------------------------


  Excited state  6 (A)                                             [converged]
  ----------------------------------------------------------------------------
  Term symbol:  7 (-) A                                     R^2 =  1.27642e-13

  Total energy:                                           -424.9916187071 a.u.
  Excitation energy:                                             304.857047 eV

  Osc. strength:                                                      0.095673
  Trans. dip. moment [a.u.]:           [   0.112858,    0.007354,    0.004313]
  <i|r^2|0> [a.u.]:                    [  -0.201350,    0.088351,    0.009545]

  V1^2 = 0.9327, V2^2 = 0.0673

  Important amplitudes:
     core i     occ j      vir a      vir b          v   
    ------------------------------------------------------
     5 (A) B              24 (A) B                 0.5082
     5 (A) A              24 (A) A                 0.5082
    ------------------------------------------------------
  ----------------------------------------------------------------------------


  Excited state  7 (A)                                             [converged]
  ----------------------------------------------------------------------------
  Term symbol:  8 (-) A                                     R^2 =  2.10704e-13

  Total energy:                                           -424.9745435784 a.u.
  Excitation energy:                                             305.321684 eV

  Osc. strength:                                                      0.053902
  Trans. dip. moment [a.u.]:           [  -0.046445,    0.062712,    0.033405]
  <i|r^2|0> [a.u.]:                    [   0.100213,    0.655242,   -0.017025]

  V1^2 = 0.9167, V2^2 = 0.0833

  Important amplitudes:
     core i     occ j      vir a      vir b          v   
    ------------------------------------------------------
     5 (A) A              23 (A) A                 0.4992
     5 (A) B              23 (A) B                 0.4992
    ------------------------------------------------------
  ----------------------------------------------------------------------------


  Excited state  8 (A)                                             [converged]
  ----------------------------------------------------------------------------
  Term symbol:  9 (-) A                                     R^2 =  9.13437e-14

  Total energy:                                           -424.9449275446 a.u.
  Excitation energy:                                             306.127578 eV

  Osc. strength:                                                      0.100036
  Trans. dip. moment [a.u.]:           [  -0.011820,   -0.003577,   -0.114829]
  <i|r^2|0> [a.u.]:                    [   0.027895,   -0.026137,    0.096578]

  V1^2 = 0.9326, V2^2 = 0.0674

  Important amplitudes:
     core i     occ j      vir a      vir b          v   
    ------------------------------------------------------
     5 (A) B              25 (A) B                -0.5422
     5 (A) A              25 (A) A                -0.5422
    ------------------------------------------------------
  ----------------------------------------------------------------------------


  Excited state  9 (A)                                             [converged]
  ----------------------------------------------------------------------------
  Term symbol:  10 (-) A                                    R^2 =  2.98320e-13

  Total energy:                                           -424.6855065027 a.u.
  Excitation energy:                                             313.186783 eV

  Osc. strength:                                                      0.000000
  Trans. dip. moment [a.u.]:           [  -0.000000,   -0.000000,    0.000000]
  <i|r^2|0> [a.u.]:                    [  -0.000000,   -0.000000,   -0.000000]

  V1^2 = 0.8798, V2^2 = 0.1202

  Important amplitudes:
     core i     occ j      vir a      vir b          v   
    ------------------------------------------------------
     5 (A) B              26 (A) B                 0.4713
     5 (A) A              26 (A) A                -0.4713
    ------------------------------------------------------
  ----------------------------------------------------------------------------


  Excited state 10 (A)                                             [converged]
  ----------------------------------------------------------------------------
  Term symbol:  11 (-) A                                    R^2 =  5.09517e-13

  Total energy:                                           -424.6717767978 a.u.
  Excitation energy:                                             313.560388 eV

  Osc. strength:                                                      0.000000
  Trans. dip. moment [a.u.]:           [   0.000000,   -0.000000,   -0.000000]
  <i|r^2|0> [a.u.]:                    [  -0.000000,   -0.000000,    0.000000]

  V1^2 = 0.8804, V2^2 = 0.1196

  Important amplitudes:
     core i     occ j      vir a      vir b          v   
    ------------------------------------------------------
     5 (A) B              27 (A) B                -0.3858
     5 (A) A              27 (A) A                 0.3858
    ------------------------------------------------------
  ----------------------------------------------------------------------------


  Excited state 11 (A)                                             [converged]
  ----------------------------------------------------------------------------
  Term symbol:  12 (-) A                                    R^2 =  2.17382e-13

  Total energy:                                           -424.6587146360 a.u.
  Excitation energy:                                             313.915827 eV

  Osc. strength:                                                      0.033519
  Trans. dip. moment [a.u.]:           [   0.006196,   -0.065608,    0.003932]
  <i|r^2|0> [a.u.]:                    [  -0.019846,   -0.674004,   -0.010619]

  V1^2 = 0.8779, V2^2 = 0.1221

  Important amplitudes:
     core i     occ j      vir a      vir b          v   
    ------------------------------------------------------
     5 (A) A              26 (A) A                 0.6067
     5 (A) B              26 (A) B                 0.6067
    ------------------------------------------------------
  ----------------------------------------------------------------------------


  Excited state 12 (A)                                             [converged]
  ----------------------------------------------------------------------------
  Term symbol:  13 (-) A                                    R^2 =  1.11023e-13

  Total energy:                                           -424.6575986665 a.u.
  Excitation energy:                                             313.946194 eV

  Osc. strength:                                                      0.000000
  Trans. dip. moment [a.u.]:           [   0.000000,   -0.000000,    0.000000]
  <i|r^2|0> [a.u.]:                    [  -0.000000,   -0.000000,   -0.000000]

  V1^2 = 0.8758, V2^2 = 0.1242

  Important amplitudes:
     core i     occ j      vir a      vir b          v   
    ------------------------------------------------------
     5 (A) B              28 (A) B                 0.3906
     5 (A) A              28 (A) A                -0.3906
    ------------------------------------------------------
  ----------------------------------------------------------------------------


  Excited state 13 (A)                                             [converged]
  ----------------------------------------------------------------------------
  Term symbol:  14 (-) A                                    R^2 =  1.33407e-13

  Total energy:                                           -424.6431391715 a.u.
  Excitation energy:                                             314.339657 eV

  Osc. strength:                                                      0.026140
  Trans. dip. moment [a.u.]:           [  -0.045770,    0.013421,    0.033456]
  <i|r^2|0> [a.u.]:                    [   0.071531,    0.124623,   -0.039882]

  V1^2 = 0.8834, V2^2 = 0.1166

  Important amplitudes:
     core i     occ j      vir a      vir b          v   
    ------------------------------------------------------
     5 (A) B              27 (A) B                 0.5417
     5 (A) A              27 (A) A                 0.5417
    ------------------------------------------------------
  ----------------------------------------------------------------------------


  Excited state 14 (A)                                             [converged]
  ----------------------------------------------------------------------------
  Term symbol:  15 (-) A                                    R^2 =  3.72736e-13

  Total energy:                                           -424.6387820044 a.u.
  Excitation energy:                                             314.458222 eV

  Osc. strength:                                                      0.000000
  Trans. dip. moment [a.u.]:           [  -0.000000,    0.000000,   -0.000000]
  <i|r^2|0> [a.u.]:                    [   0.000000,    0.000000,    0.000000]

  V1^2 = 0.8640, V2^2 = 0.1360

  Important amplitudes:
     core i     occ j      vir a      vir b          v   
    ------------------------------------------------------
     5 (A) B              29 (A) B                -0.4834
     5 (A) A              29 (A) A                 0.4834
    ------------------------------------------------------
  ----------------------------------------------------------------------------


  Excited state 15 (A)                                             [converged]
  ----------------------------------------------------------------------------
  Term symbol:  16 (-) A                                    R^2 =  6.50595e-14

  Total energy:                                           -424.6381336735 a.u.
  Excitation energy:                                             314.475864 eV

  Osc. strength:                                                      0.037983
  Trans. dip. moment [a.u.]:           [  -0.040199,   -0.006020,   -0.057252]
  <i|r^2|0> [a.u.]:                    [   0.075069,   -0.058774,    0.048114]

  V1^2 = 0.8809, V2^2 = 0.1191

  Important amplitudes:
     core i     occ j      vir a      vir b          v   
    ------------------------------------------------------
     5 (A) A              28 (A) A                -0.4866
     5 (A) B              28 (A) B                -0.4866
    ------------------------------------------------------
  ----------------------------------------------------------------------------


  Excited state 16 (A)                                             [converged]
  ----------------------------------------------------------------------------
  Term symbol:  17 (-) A                                    R^2 =  8.29455e-13

  Total energy:                                           -424.6016869178 a.u.
  Excitation energy:                                             315.467630 eV

  Osc. strength:                                                      0.016800
  Trans. dip. moment [a.u.]:           [  -0.025393,   -0.031649,    0.022962]
  <i|r^2|0> [a.u.]:                    [   0.066268,   -0.300976,    0.000156]

  V1^2 = 0.8702, V2^2 = 0.1298

  Important amplitudes:
     core i     occ j      vir a      vir b          v   
    ------------------------------------------------------
     5 (A) A              29 (A) A                 0.6083
     5 (A) B              29 (A) B                 0.6083
    ------------------------------------------------------
  ----------------------------------------------------------------------------


  Excited state 17 (A)                                             [converged]
  ----------------------------------------------------------------------------
  Term symbol:  18 (-) A                                    R^2 =  6.51049e-11

  Total energy:                                           -424.2385647059 a.u.
  Excitation energy:                                             325.348688 eV

  Osc. strength:                                                      0.000000
  Trans. dip. moment [a.u.]:           [  -0.000000,   -0.000000,    0.000000]
  <i|r^2|0> [a.u.]:                    [   0.000000,   -0.000000,    0.000000]

  V1^2 = 0.0297, V2^2 = 0.9703

  Important amplitudes:
     core i     occ j      vir a      vir b          v   
    ------------------------------------------------------
     5 (A) B   21 (A) A   22 (A) A   22 (A) B     -0.4906
     5 (A) A   21 (A) B   22 (A) A   22 (A) B     -0.4906
    ------------------------------------------------------
  ----------------------------------------------------------------------------


  Excited state 18 (A)                                             [converged]
  ----------------------------------------------------------------------------
  Term symbol:  19 (-) A                                    R^2 =  7.45421e-12

  Total energy:                                           -424.2359459948 a.u.
  Excitation energy:                                             325.419947 eV

  Osc. strength:                                                      0.000850
  Trans. dip. moment [a.u.]:           [   0.002911,    0.009502,   -0.002804]
  <i|r^2|0> [a.u.]:                    [  -0.008846,    0.094138,   -0.001250]

  V1^2 = 0.0337, V2^2 = 0.9663

  Important amplitudes:
     core i     occ j      vir a      vir b          v   
    ------------------------------------------------------
     5 (A) A   21 (A) B   22 (A) A   22 (A) B     -0.4893
     5 (A) B   21 (A) A   22 (A) A   22 (A) B      0.4893
    ------------------------------------------------------
  ----------------------------------------------------------------------------


  Excited state 19 (A)                                         [not converged]
  ----------------------------------------------------------------------------
  Term symbol:  20 (-) A                                    R^2 =  2.07758e-04

  Total energy:                                           -424.0182418749 a.u.
  Excitation energy:                                             331.343977 eV


  V1^2 = 0.8508, V2^2 = 0.1492

  Important amplitudes:
     core i     occ j      vir a      vir b          v   
    ------------------------------------------------------
     5 (A) B              30 (A) B                -0.5950
     5 (A) A              30 (A) A                 0.5950
    ------------------------------------------------------
  ----------------------------------------------------------------------------


  Excited state 20 (A)                                         [not converged]
  ----------------------------------------------------------------------------
  Term symbol:  21 (-) A                                    R^2 =  4.57660e-04

  Total energy:                                           -424.0132783851 a.u.
  Excitation energy:                                             331.479041 eV


  V1^2 = 0.8500, V2^2 = 0.1500

  Important amplitudes:
     core i     occ j      vir a      vir b          v   
    ------------------------------------------------------
     5 (A) A              30 (A) A                 0.5914
     5 (A) B              30 (A) B                 0.5913
    ------------------------------------------------------
  ----------------------------------------------------------------------------


--------------------------------------------------------------------------------
  Time of ADC calculation:  CPU 3342.88 s  wall 2037.37 s
================================================================================
 
 --------------------------------------------------------------
 
                    Orbital Energies (a.u.)
 --------------------------------------------------------------
 
 Alpha MOs
 -- Occupied --
-26.533 -26.515 -26.511 -26.075 -11.734  -1.930  -1.830  -1.809
 -1.299  -1.109  -1.008  -1.004  -0.952  -0.856  -0.848  -0.825
 -0.815  -0.799  -0.416  -0.416  -0.349
 -- Virtual --
 -0.070   0.290   0.340   0.361   0.577   0.588   0.618   0.630
  1.196   1.213   1.224   1.254   1.279   1.326   1.488   1.495
  1.501   1.505   1.514   1.523   1.636   1.667   1.679   1.779
  1.837   1.852   1.953   1.972   1.987   2.043   2.050   2.071
  2.163   2.200   2.215   2.274   2.343   2.346   2.346   2.351
  2.381   2.695   2.724   2.753   3.048   3.067   3.315   3.332
  3.364   4.022   4.451   4.622   4.683   4.897
 
 Beta MOs
 -- Occupied --
-26.533 -26.515 -26.511 -26.075 -11.734  -1.930  -1.830  -1.809
 -1.299  -1.109  -1.008  -1.004  -0.952  -0.856  -0.848  -0.825
 -0.815  -0.799  -0.416  -0.416  -0.349
 -- Virtual --
 -0.070   0.290   0.340   0.361   0.577   0.588   0.618   0.630
  1.196   1.213   1.224   1.254   1.279   1.326   1.488   1.495
  1.501   1.505   1.514   1.523   1.636   1.667   1.679   1.779
  1.837   1.852   1.953   1.972   1.987   2.043   2.050   2.071
  2.163   2.200   2.215   2.274   2.343   2.346   2.346   2.351
  2.381   2.695   2.724   2.753   3.048   3.067   3.315   3.332
  3.364   4.022   4.451   4.622   4.683   4.897
 --------------------------------------------------------------
 
          Ground-State Mulliken Net Atomic Charges

     Atom                 Charge (a.u.)    Spin (a.u.)
  --------------------------------------------------------
      1 C                     1.145951       0.000000
      2 F                    -0.196929       0.000000
      3 F                    -0.158073       0.000000
      4 F                    -0.653310       0.000000
      5 F                    -0.137639       0.000000
  --------------------------------------------------------
  Sum of atomic charges =     0.000000
  Sum of spin   charges =     0.000000

 -----------------------------------------------------------------
                    Cartesian Multipole Moments
 -----------------------------------------------------------------
    Charge (ESU x 10^10)
                 0.0000
    Dipole Moment (Debye)
         X       3.7495      Y       7.2207      Z      -3.7669
       Tot       8.9658
    Quadrupole Moments (Debye-Ang)
        XX     -31.9898     XY      -2.5577     YY      -1.4169
        XZ       5.5651     YZ      -3.1836     ZZ     -25.8440
    Octopole Moments (Debye-Ang^2)
       XXX      66.2230    XXY     -54.8115    XYY       5.4044
       YYY     -99.2829    XXZ      -9.4778    XYZ       3.0762
       YYZ      -6.7363    XZZ      21.1152    YZZ     -53.5064
       ZZZ      -4.5231
    Hexadecapole Moments (Debye-Ang^3)
      XXXX    -213.7551   XXXY      83.0764   XXYY    -179.8699
      XYYY      45.5846   YYYY    -747.3286   XXXZ      35.8107
      XXYZ       5.9140   XYYZ      10.2832   YYYZ      12.2654
      XXZZ     -56.6710   XYZZ      26.2563   YYZZ    -168.1833
      XZZZ      25.7919   YZZZ      27.6406   ZZZZ    -108.6726
 -----------------------------------------------------------------
Archival summary:
1\1\tp-linux1\SP\HF\6-31G*\41\thomas\MonMar2002:23:452017MonMar2002:23:452017\0\\#,HF,6-31G*,\\0,1\C\F,1,1.23328\F,1,1.26295,2,117.273\F,1,1.28122,2,112.864,3,135.086,0\F,1,2.9595,2,107.5,3,-93.9855,0\\HF=-435.344453\\@

 Total job time:  2052.25s(wall), 3358.12s(cpu) 
 Mon Mar 20 02:23:45 2017

        *************************************************************
        *                                                           *
        *  Thank you very much for using Q-Chem.  Have a nice day.  *
        *                                                           *
        *************************************************************


0 sent ACK to 0 
now end server 0 ... 
cleanup process ... done
