
Running Job 1 of 2 ddtraj2t39.inp
qchem ddtraj2t39.inp_17271.0 /scratch/qchem/qchem17271/ 1
/mnt/software/qchem/bin/mpi/mpirun_qchem -machinefile /mnt/software/qchem/bin/mpi/machines -np 1 /mnt/software/qchem/exe/qcprog.exe ddtraj2t39.inp_17271.0 /scratch/qchem/qchem17271/

Process 0 of 1 is on tp-linux1 - thread support 0
initial socket setup ...start
initial socket setup ...done 
now start server 0 ... 

cmd = ssh tp-linux1 /mnt/software/qchem/bin/get_hostid 2084399238 > /scratch/qchem/qchem17271/lic.dat
                  Welcome to Q-Chem
     A Quantum Leap Into The Future Of Chemistry


 Q-Chem 4.3, Q-Chem, Inc., Pleasanton, CA (2015)

 Y. Shao,  Z. Gan,  E. Epifanovsky,  A. T. B. Gilbert,  M. Wormit,  
 J. Kussmann,  A. W. Lange,  A. Behn,  J. Deng,  X. Feng,  D. Ghosh,  
 M. Goldey,  P. R. Horn,  L. D. Jacobson,  I. Kaliman,  R. Z. Khaliullin,  
 T. Kus,  A. Landau,  J. Liu,  E. I. Proynov,  Y. M. Rhee,  R. M. Richard,  
 M. A. Rohrdanz,  R. P. Steele,  E. J. Sundstrom,  H. L. Woodcock III,  
 P. M. Zimmerman,  D. Zuev,  B. Albrecht,  E. Alguire,  B. Austin,  
 S. A. Baeppler,  G. J. O. Beran,  Y. A. Bernard,  E. Berquist,  
 K. Brandhorst,  K. B. Bravaya,  S. T. Brown,  D. Casanova,  C.-M. Chang,  
 Y. Chen,  S. H. Chien,  K. D. Closser,  D. L. Crittenden,  M. Diedenhofen,  
 R. A. DiStasio Jr.,  H. Do,  A. D. Dutoi,  R. G. Edgar,  P.-T. Fang,  
 S. Fatehi,  Q. Feng,  L. Fusti-Molnar,  A. Ghysels,  
 A. Golubeva-Zadorozhnaya,  J. Gomes,  A. Gunina,  M. W. D. Hanson-Heine,  
 P. H. P. Harbach,  A. W. Hauser,  E. G. Hohenstein,  Z. C. Holden,  K. Hui,  
 T.-C. Jagau,  H. Ji,  B. Kaduk,  K. Khistyaev,  Jaehoon Kim,  Jihan Kim,  
 R. A. King,  P. Klunzinger,  D. Kosenkov,  T. Kowalczyk,  C. M. Krauter,  
 K. U. Lao,  A. Laurent,  K. V. Lawler,  S. Lehtola,  S. V. Levchenko,  
 C. Y. Lin,  Y.-S. Lin,  F. Liu,  E. Livshits,  R. C. Lochan,  A. Luenser,  
 P. Manohar,  S. F. Manzer,  S.-P. Mao,  N. Mardirossian,  A. V. Marenich,  
 L. A. Martinez-Martinez,  S. A. Maurer,  N. J. Mayhall,  K. Nanda,  
 C. M. Oana,  R. Olivares-Amaya,  D. P. O'Neill,  J. A. Parkhill,  
 T. M. Perrine,  R. Peverati,  P. A. Pieniazek,  F. Plasser,  A. Prociuk,  
 D. R. Rehn,  E. Rosta,  N. J. Russ,  N. Sergueev,  S. M. Sharada,  
 S. Sharma,  D. W. Small,  A. Sodt,  T. Stauch,  T. Stein,  D. Stuck,  
 Y.-C. Su,  A. J. W. Thom,  T. Tsuchimochi,  L. Vogt,  O. Vydrov,  T. Wang,  
 M. A. Watson,  J. Wenzel,  A. White,  C. F. Williams,  V. Vanovschi,  
 S. Yeganeh,  S. R. Yost,  Z.-Q. You,  I. Y. Zhang,  X. Zhang,  Y. Zhao,  
 B. R. Brooks,  G. K. L. Chan,  D. M. Chipman,  C. J. Cramer,  
 W. A. Goddard III,  M. S. Gordon,  W. J. Hehre,  A. Klamt,  
 H. F. Schaefer III,  M. W. Schmidt,  C. D. Sherrill,  D. G. Truhlar,  
 A. Warshel,  X. Xu,  A. Aspuru-Guzik,  R. Baer,  A. T. Bell,  N. A. Besley,  
 J.-D. Chai,  A. Dreuw,  B. D. Dunietz,  T. R. Furlani,  S. R. Gwaltney,  
 C.-P. Hsu,  Y. Jung,  J. Kong,  D. S. Lambrecht,  W. Liang,  C. Ochsenfeld,  
 V. A. Rassolov,  L. V. Slipchenko,  J. E. Subotnik,  T. Van Voorhis,  
 J. M. Herbert,  A. I. Krylov,  P. M. W. Gill,  M. Head-Gordon

 Contributors to earlier versions of Q-Chem not listed above: 
 R. D. Adamson,  J. Baker,  E. F. C. Byrd,  A. K. Chakraborty,  C.-L. Cheng,  
 H. Dachsel,  R. J. Doerksen,  G. Hawkins,  A. Heyden,  S. Hirata,  
 G. Kedziora,  F. J. Keil,  C. Kelley,  P. P. Korambath,  W. Kurlancheek,  
 A. M. Lee,  M. S. Lee,  D. Liotard,  I. Lotan,  P. E. Maslen,  N. Nair,  
 D. Neuhauser,  R. Olson,  B. Peters,  J. Ritchie,  N. E. Schultz,  
 N. Shenvi,  A. C. Simmonett,  K. S. Thanthiriwatte,  Q. Wu,  W. Zhang

 Please cite Q-Chem as follows:
 Y. Shao et al., Mol. Phys. 113, 184-215 (2015)
 DOI: 10.1080/00268976.2014.952696

 Q-Chem 4.3.0 for Intel X86 Linux

 Parts of Q-Chem use Armadillo 5.200.1 (Boston Tea Smuggler).
 http://arma.sourceforge.net/

 Q-Chem begins on Fri Mar 17 13:28:35 2017  

Host: 
0

     Scratch files written to /scratch/qchem/qchem17271//
 Nov1815 1189b_ 19540  19532 5443   
 Parallel job on  1  processors
Processing $rem in /mnt/software/qchem/config/preferences.
 MEM_TOTAL  2000 

Checking the input file for inconsistencies... 	...done.

--------------------------------------------------------------
User input:
--------------------------------------------------------------
$comment
XAS calculation for the 2b valence excited for water using cvs-adc(2)-x + 6-311+G* basis set
job 1 - determination of HF orbitals
$end

$molecule
0 1
6  -0.581918  2.66315  -0.154102
9  0.647872  2.565652  -0.073728
9  -1.078257  3.603195  0.706796
9  -1.405612  0.196047  0.787948
9  -1.068853  2.852722  -1.315577
$end

$rem
jobtype      sp
sym_ignore true
exchange     hf
basis        6-31G*
unrestricted true
$end

--------------------------------------------------------------
 ----------------------------------------------------------------
             Standard Nuclear Orientation (Angstroms)
    I     Atom           X                Y                Z
 ----------------------------------------------------------------
    1      C      -0.5819180000     2.6631500000    -0.1541020000
    2      F       0.6478720000     2.5656520000    -0.0737280000
    3      F      -1.0782570000     3.6031950000     0.7067960000
    4      F      -1.4056120000     0.1960470000     0.7879480000
    5      F      -1.0688530000     2.8527220000    -1.3155770000
 ----------------------------------------------------------------
 Nuclear Repulsion Energy =   174.8208665696 hartrees
 There are       21 alpha and       21 beta electrons
 Requested basis set is 6-31G(d)
 There are 20 shells and 75 basis functions

 Total QAlloc Memory Limit   2000 MB
 Mega-Array Size        61 MB
 MEM_STATIC part        62 MB

                       Distance Matrix (Angstroms)
             C (  1)   F (  2)   F (  3)   F (  4)
   F (  2)  1.236264
   F (  3)  1.367912  2.159915
   F (  4)  2.766320  3.251816  3.423800
   F (  5)  1.273604  2.138163  2.157149  3.405311
 
 tim1(1): 
  0.000000000000000E+000
 tim1(2): 
  0.000000000000000E+000
 A cutoff of  1.0D-08 yielded    180 shell pairs
 There are      2716 function pairs
 
 -------------------------------------------------------
 OpenMP Integral Computing Module                       
 Release: version 1.0, May 2013, Q-Chem Inc. Pittsburgh 
 -------------------------------------------------------
 Integral Job Info:
 Integral job number is                      11
 Integral operator is                         1
 short-range coefficients                     0
 long-range coefficients              100000000
 Omega coefficients                           0
 if combine SR and LR in K                    0
 Integral screening is                        0
 Integral computing path is                   2
 max size of driver memory is            800000
 size of driver memory is                593474
 size of scratch memory is              2260544
 max col of scratch BK array               1296
 max len of scratch array in speh3          155
 max len of scratch index in speh4           18
 max int batch size is                      520
 min int batch size is                       52
 fixed nKL is                                52
 max L of basis functions is                  2
 order of int derivative is                   0
 number of shells is                         20
 number of basis is                          75
 number of cartesian basis is                75
 number of contracted shell pairs           180
 number of primitive shell pairs            875
 maxK2 (contraction) of shell pair           36
 max number of K2 of shell pair               1
 max number of CS2 of shell pair             29
 max number of PS2 of shell pair            180
 mem total for path MDJ                   17476
 -------------------------------------------------------
 Smallest overlap matrix eigenvalue = 3.32E-03

 Scale SEOQF with 1.000000e+00/1.000000e-01/1.000000e+00

 Standard Electronic Orientation quadrupole field applied
 Nucleus-field energy     =     0.0000000090 hartrees
 Guess from superposition of atomic densities
 Warning:  Energy on first SCF cycle will be non-variational
 An unrestricted Hartree-Fock SCF calculation will be
 performed using Pulay DIIS extrapolation
 SCF converges when DIIS error is below 1.0E-05
 using 8 threads for integral computing 
 ---------------------------------------
  Cycle       Energy         DIIS Error
 ---------------------------------------
    1    -435.8662809592      7.89E-02
    2    -435.0486945806      2.15E-02
    3    -434.4593492863      3.59E-02
    4    -435.3151455500      7.55E-03
    5    -435.3476467717      2.27E-03
    6    -435.3519562057      4.61E-04
    7    -435.3522572334      4.12E-04
    8    -435.3524045449      1.89E-04
    9    -435.3524791940      6.12E-05
   10    -435.3525044574      4.81E-05
   11    -435.3525201348      2.83E-05
   12    -435.3525252034      8.75E-06 Convergence criterion met
 ---------------------------------------
 <S^2> = 0.0000
 SCF time:  CPU 12.52 s  wall 2.88 s
 SCF   energy in the final basis set = -435.3525252034
 Total energy in the final basis set = -435.3525252034
 
 --------------------------------------------------------------
 
                    Orbital Energies (a.u.)
 --------------------------------------------------------------
 
 Alpha MOs
 -- Occupied --
-26.517 -26.504 -26.465 -26.142 -11.720  -1.899  -1.812  -1.742
 -1.353  -1.087  -0.981  -0.963  -0.922  -0.835  -0.810  -0.808
 -0.775  -0.767  -0.472  -0.472  -0.390
 -- Virtual --
 -0.074   0.285   0.320   0.359   0.586   0.609   0.635   0.653
  1.206   1.220   1.243   1.275   1.276   1.307   1.496   1.502
  1.508   1.537   1.543   1.554   1.622   1.625   1.656   1.826
  1.836   1.862   1.968   1.986   2.000   2.029   2.036   2.064
  2.174   2.201   2.253   2.264   2.300   2.300   2.316   2.322
  2.358   2.569   2.717   2.767   2.996   3.019   3.266   3.308
  3.374   4.001   4.456   4.499   4.629   4.973
 
 Beta MOs
 -- Occupied --
-26.517 -26.504 -26.465 -26.142 -11.720  -1.899  -1.812  -1.742
 -1.353  -1.087  -0.981  -0.963  -0.922  -0.835  -0.810  -0.808
 -0.775  -0.767  -0.472  -0.472  -0.390
 -- Virtual --
 -0.074   0.285   0.320   0.359   0.586   0.609   0.635   0.653
  1.206   1.220   1.243   1.275   1.276   1.307   1.496   1.502
  1.508   1.537   1.543   1.554   1.622   1.625   1.656   1.826
  1.836   1.862   1.968   1.986   2.000   2.029   2.036   2.064
  2.174   2.201   2.253   2.264   2.300   2.300   2.316   2.322
  2.358   2.569   2.717   2.767   2.996   3.019   3.266   3.308
  3.374   4.001   4.456   4.499   4.629   4.973
 --------------------------------------------------------------
 
          Ground-State Mulliken Net Atomic Charges

     Atom                 Charge (a.u.)    Spin (a.u.)
  --------------------------------------------------------
      1 C                     1.146375       0.000000
      2 F                    -0.140270       0.000000
      3 F                    -0.268098       0.000000
      4 F                    -0.552308       0.000000
      5 F                    -0.185699       0.000000
  --------------------------------------------------------
  Sum of atomic charges =     0.000000
  Sum of spin   charges =     0.000000

 -----------------------------------------------------------------
                    Cartesian Multipole Moments
 -----------------------------------------------------------------
    Charge (ESU x 10^10)
                 0.0000
    Dipole Moment (Debye)
         X       2.4388      Y       5.9489      Z      -2.7033
       Tot       6.9746
    Quadrupole Moments (Debye-Ang)
        XX     -27.9852     XY      -1.7850     YY      -7.1514
        XZ       3.2328     YZ      -2.6482     ZZ     -25.2240
    Octopole Moments (Debye-Ang^2)
       XXX      58.3609    XXY     -54.5710    XYY      11.2951
       YYY    -122.8999    XXZ      -4.6757    XYZ       2.2321
       YYZ      -6.8893    XZZ      19.3310    YZZ     -55.2398
       ZZZ      -2.7816
    Hexadecapole Moments (Debye-Ang^3)
      XXXX    -168.5179   XXXY     101.8310   XXYY    -185.7020
      XYYY      88.8722   YYYY    -867.4843   XXXZ      14.1770
      XXYZ       4.5208   XYYZ       6.7414   YYYZ       0.5642
      XXZZ     -45.0691   XYZZ      34.0068   YYZZ    -177.1837
      XZZZ      10.5315   YZZZ      19.7465   ZZZZ     -93.7719
 -----------------------------------------------------------------
Archival summary:
1\1\tp-linux1\SP\HF\6-31G*\41\thomas\FriMar1713:28:382017FriMar1713:28:382017\0\\#,HF,6-31G*,\\0,1\C\F,1,1.23626\F,1,1.2736,2,116.831\F,1,1.36791,2,111.976,3,127.333,0\F,1,2.76632,2,101.755,3,-118.841,0\\HF=-435.352525\\@

 Total job time:  3.19s(wall), 14.23s(cpu) 
 Fri Mar 17 13:28:38 2017

        *************************************************************
        *                                                           *
        *  Thank you very much for using Q-Chem.  Have a nice day.  *
        *                                                           *
        *************************************************************


0 sent ACK to 0 
now end server 0 ... 
cleanup process ... done

Running Job 2 of 2 ddtraj2t39.inp
qchem ddtraj2t39.inp_17271.1 /scratch/qchem/qchem17271/ 1
/mnt/software/qchem/bin/mpi/mpirun_qchem -machinefile /mnt/software/qchem/bin/mpi/machines -np 1 /mnt/software/qchem/exe/qcprog.exe ddtraj2t39.inp_17271.1 /scratch/qchem/qchem17271/

Process 0 of 1 is on tp-linux1 - thread support 0
initial socket setup ...start
initial socket setup ...done 
now start server 0 ... 

cmd = ssh tp-linux1 /mnt/software/qchem/bin/get_hostid 1332566858 > /scratch/qchem/qchem17271/lic.dat
                  Welcome to Q-Chem
     A Quantum Leap Into The Future Of Chemistry


 Q-Chem 4.3, Q-Chem, Inc., Pleasanton, CA (2015)

 Y. Shao,  Z. Gan,  E. Epifanovsky,  A. T. B. Gilbert,  M. Wormit,  
 J. Kussmann,  A. W. Lange,  A. Behn,  J. Deng,  X. Feng,  D. Ghosh,  
 M. Goldey,  P. R. Horn,  L. D. Jacobson,  I. Kaliman,  R. Z. Khaliullin,  
 T. Kus,  A. Landau,  J. Liu,  E. I. Proynov,  Y. M. Rhee,  R. M. Richard,  
 M. A. Rohrdanz,  R. P. Steele,  E. J. Sundstrom,  H. L. Woodcock III,  
 P. M. Zimmerman,  D. Zuev,  B. Albrecht,  E. Alguire,  B. Austin,  
 S. A. Baeppler,  G. J. O. Beran,  Y. A. Bernard,  E. Berquist,  
 K. Brandhorst,  K. B. Bravaya,  S. T. Brown,  D. Casanova,  C.-M. Chang,  
 Y. Chen,  S. H. Chien,  K. D. Closser,  D. L. Crittenden,  M. Diedenhofen,  
 R. A. DiStasio Jr.,  H. Do,  A. D. Dutoi,  R. G. Edgar,  P.-T. Fang,  
 S. Fatehi,  Q. Feng,  L. Fusti-Molnar,  A. Ghysels,  
 A. Golubeva-Zadorozhnaya,  J. Gomes,  A. Gunina,  M. W. D. Hanson-Heine,  
 P. H. P. Harbach,  A. W. Hauser,  E. G. Hohenstein,  Z. C. Holden,  K. Hui,  
 T.-C. Jagau,  H. Ji,  B. Kaduk,  K. Khistyaev,  Jaehoon Kim,  Jihan Kim,  
 R. A. King,  P. Klunzinger,  D. Kosenkov,  T. Kowalczyk,  C. M. Krauter,  
 K. U. Lao,  A. Laurent,  K. V. Lawler,  S. Lehtola,  S. V. Levchenko,  
 C. Y. Lin,  Y.-S. Lin,  F. Liu,  E. Livshits,  R. C. Lochan,  A. Luenser,  
 P. Manohar,  S. F. Manzer,  S.-P. Mao,  N. Mardirossian,  A. V. Marenich,  
 L. A. Martinez-Martinez,  S. A. Maurer,  N. J. Mayhall,  K. Nanda,  
 C. M. Oana,  R. Olivares-Amaya,  D. P. O'Neill,  J. A. Parkhill,  
 T. M. Perrine,  R. Peverati,  P. A. Pieniazek,  F. Plasser,  A. Prociuk,  
 D. R. Rehn,  E. Rosta,  N. J. Russ,  N. Sergueev,  S. M. Sharada,  
 S. Sharma,  D. W. Small,  A. Sodt,  T. Stauch,  T. Stein,  D. Stuck,  
 Y.-C. Su,  A. J. W. Thom,  T. Tsuchimochi,  L. Vogt,  O. Vydrov,  T. Wang,  
 M. A. Watson,  J. Wenzel,  A. White,  C. F. Williams,  V. Vanovschi,  
 S. Yeganeh,  S. R. Yost,  Z.-Q. You,  I. Y. Zhang,  X. Zhang,  Y. Zhao,  
 B. R. Brooks,  G. K. L. Chan,  D. M. Chipman,  C. J. Cramer,  
 W. A. Goddard III,  M. S. Gordon,  W. J. Hehre,  A. Klamt,  
 H. F. Schaefer III,  M. W. Schmidt,  C. D. Sherrill,  D. G. Truhlar,  
 A. Warshel,  X. Xu,  A. Aspuru-Guzik,  R. Baer,  A. T. Bell,  N. A. Besley,  
 J.-D. Chai,  A. Dreuw,  B. D. Dunietz,  T. R. Furlani,  S. R. Gwaltney,  
 C.-P. Hsu,  Y. Jung,  J. Kong,  D. S. Lambrecht,  W. Liang,  C. Ochsenfeld,  
 V. A. Rassolov,  L. V. Slipchenko,  J. E. Subotnik,  T. Van Voorhis,  
 J. M. Herbert,  A. I. Krylov,  P. M. W. Gill,  M. Head-Gordon

 Contributors to earlier versions of Q-Chem not listed above: 
 R. D. Adamson,  J. Baker,  E. F. C. Byrd,  A. K. Chakraborty,  C.-L. Cheng,  
 H. Dachsel,  R. J. Doerksen,  G. Hawkins,  A. Heyden,  S. Hirata,  
 G. Kedziora,  F. J. Keil,  C. Kelley,  P. P. Korambath,  W. Kurlancheek,  
 A. M. Lee,  M. S. Lee,  D. Liotard,  I. Lotan,  P. E. Maslen,  N. Nair,  
 D. Neuhauser,  R. Olson,  B. Peters,  J. Ritchie,  N. E. Schultz,  
 N. Shenvi,  A. C. Simmonett,  K. S. Thanthiriwatte,  Q. Wu,  W. Zhang

 Please cite Q-Chem as follows:
 Y. Shao et al., Mol. Phys. 113, 184-215 (2015)
 DOI: 10.1080/00268976.2014.952696

 Q-Chem 4.3.0 for Intel X86 Linux

 Parts of Q-Chem use Armadillo 5.200.1 (Boston Tea Smuggler).
 http://arma.sourceforge.net/

 Q-Chem begins on Fri Mar 17 13:28:40 2017  

Host: 
0

     Scratch files written to /scratch/qchem/qchem17271//
 Nov1815 1189b_ 19540  19532 5443   
 Parallel job on  1  processors
Processing $rem in /mnt/software/qchem/config/preferences.
 MEM_TOTAL  2000 

Checking the input file for inconsistencies... 	...done.

--------------------------------------------------------------
User input:
--------------------------------------------------------------

$comment
job3 - cvs-adc(2) calculation
$end

$molecule
read
$end

$rem
mem_total 3000
mem_static 1500
sym_ignore true
scf_guess read
method cvs-adc(2)
basis 6-31G*
ee_singlets 20
cc_rest_occ 5                  !only excitations from the lowest N orbitals
unrestricted  true
max_scf_cycles 200
$end
--------------------------------------------------------------
 ----------------------------------------------------------------
             Standard Nuclear Orientation (Angstroms)
    I     Atom           X                Y                Z
 ----------------------------------------------------------------
    1      C      -0.5819180000     2.6631500000    -0.1541020000
    2      F       0.6478720000     2.5656520000    -0.0737280000
    3      F      -1.0782570000     3.6031950000     0.7067960000
    4      F      -1.4056120000     0.1960470000     0.7879480000
    5      F      -1.0688530000     2.8527220000    -1.3155770000
 ----------------------------------------------------------------
 Nuclear Repulsion Energy =   174.8208665696 hartrees
 There are       21 alpha and       21 beta electrons
 Requested basis set is 6-31G(d)
 There are 20 shells and 75 basis functions

 Total QAlloc Memory Limit   3000 MB
 Mega-Array Size      1467 MB
 MEM_STATIC part      1500 MB

                       Distance Matrix (Angstroms)
             C (  1)   F (  2)   F (  3)   F (  4)
   F (  2)  1.236264
   F (  3)  1.367912  2.159915
   F (  4)  2.766320  3.251816  3.423800
   F (  5)  1.273604  2.138163  2.157149  3.405311
 
 tim1(1): 
  0.000000000000000E+000
 tim1(2): 
  0.000000000000000E+000
 A cutoff of  1.0D-11 yielded    188 shell pairs
 There are      2882 function pairs
 
 -------------------------------------------------------
 OpenMP Integral Computing Module                       
 Release: version 1.0, May 2013, Q-Chem Inc. Pittsburgh 
 -------------------------------------------------------
 Integral Job Info:
 Integral job number is                      11
 Integral operator is                         1
 short-range coefficients                     0
 long-range coefficients              100000000
 Omega coefficients                           0
 if combine SR and LR in K                    0
 Integral screening is                        0
 Integral computing path is                   2
 max size of driver memory is            800000
 size of driver memory is                593474
 size of scratch memory is              2260544
 max col of scratch BK array               1296
 max len of scratch array in speh3          155
 max len of scratch index in speh4           18
 max int batch size is                      520
 min int batch size is                       52
 fixed nKL is                                52
 max L of basis functions is                  2
 order of int derivative is                   0
 number of shells is                         20
 number of basis is                          75
 number of cartesian basis is                75
 number of contracted shell pairs           188
 number of primitive shell pairs            951
 maxK2 (contraction) of shell pair           36
 max number of K2 of shell pair               1
 max number of CS2 of shell pair             32
 max number of PS2 of shell pair            192
 mem total for path MDJ                   18100
 -------------------------------------------------------
 Smallest overlap matrix eigenvalue = 3.32E-03

 Scale SEOQF with 1.000000e+00/1.000000e-01/1.000000e+00

 Standard Electronic Orientation quadrupole field applied
 Nucleus-field energy     =     0.0000000090 hartrees
 Guess MOs from SCF MO coefficient file
 Reading MOs from coefficient file
 Reading MOs from coefficient file
 An unrestricted Hartree-Fock SCF calculation will be
 performed using Pulay DIIS extrapolation
 SCF converges when DIIS error is below 1.0E-08
 using 8 threads for integral computing 
 ---------------------------------------
  Cycle       Energy         DIIS Error
 ---------------------------------------
    1    -435.3525258977      4.40E-06
    2    -435.3525258925      3.29E-06
    3    -435.3525258997      1.29E-06
    4    -435.3525259018      3.90E-07
    5    -435.3525259024      1.90E-07
    6    -435.3525259026      1.41E-07
    7    -435.3525259028      4.92E-08
    8    -435.3525259028      1.30E-08
    9    -435.3525259028      2.78E-09 Convergence criterion met
 ---------------------------------------
 <S^2> = 0.0000
 SCF time:  CPU 9.37 s  wall 2.39 s
 SCF   energy in the final basis set = -435.3525259028
 Total energy in the final basis set = -435.3525259028
================================================================================
|                                                                              |
|                                 A D C  M A N                                 |
|                                                                              |
 ------------------------------------------------------------------------------ 
|                                                                              |
| Components:                                                                  |
|                                                                              |
| - libvmm - 1.2-release                                                       |
|   Authors:                                                                   |
|   Evgeny Epifanovsky, Ilya Kaliman                                           |
|                                                                              |
| - libtensor - 2.4-trunk                                                      |
|   Authors:                                                                   |
|   Evgeny Epifanovsky, Michael Wormit, Dmitry Zuev, Sam Manzer                |
|                                                                              |
| - libwfa - 1.1-beta                                                          |
|   Authors:                                                                   |
|   Felix Plasser, Stefanie Baeppler, Benjamin Thomitzni, Michael Wormit       |
|                                                                              |
| - libadc - 1.0-beta                                                          |
|   Authors:                                                                   |
|   Michael Wormit, Philipp H. P. Harbach, Caroline Krauter, Dirk Rehn,        |
|   Matthias Schneider, Jan Wenzel                                             |
|                                                                              |
| - adcman - 2.4-beta                                                          |
|   Authors:                                                                   |
|   Michael Wormit, Philipp H. P. Harbach, Caroline Krauter, Dirk Rehn,        |
|   Jan Wenzel, Andreas Dreuw                                                  |
|                                                                              |
| Authors of earlier versions of ADCMAN:                                       |
| Andreas Dreuw, Jan Hendrik Starcke, Dirk Rehn, Michael Wormit                |
|                                                                              |
================================================================================

 
 Alpha MOs, Unrestricted
 -- Occupied --                  
-26.517 -26.504 -26.465 -26.142 -11.720  -1.899  -1.812  -1.742
  1 A     2 A     3 A     4 A     5 A     6 A     7 A     8 A                  
 -1.353  -1.088  -0.981  -0.963  -0.922  -0.835  -0.810  -0.808
  9 A    10 A    11 A    12 A    13 A    14 A    15 A    16 A                  
 -0.775  -0.767  -0.472  -0.472  -0.390
 17 A    18 A    19 A    20 A    21 A                                          
 -- Virtual --                   
 -0.074   0.285   0.320   0.359   0.586   0.609   0.635   0.653
 22 A    23 A    24 A    25 A    26 A    27 A    28 A    29 A                  
  1.206   1.220   1.243   1.275   1.276   1.307   1.496   1.502
 30 A    31 A    32 A    33 A    34 A    35 A    36 A    37 A                  
  1.508   1.537   1.543   1.554   1.622   1.625   1.656   1.826
 38 A    39 A    40 A    41 A    42 A    43 A    44 A    45 A                  
  1.836   1.861   1.968   1.986   2.000   2.029   2.036   2.064
 46 A    47 A    48 A    49 A    50 A    51 A    52 A    53 A                  
  2.174   2.201   2.253   2.264   2.300   2.300   2.316   2.322
 54 A    55 A    56 A    57 A    58 A    59 A    60 A    61 A                  
  2.358   2.569   2.717   2.766   2.996   3.019   3.266   3.308
 62 A    63 A    64 A    65 A    66 A    67 A    68 A    69 A                  
  3.373   4.001   4.456   4.499   4.628   4.973
 70 A    71 A    72 A    73 A    74 A    75 A                                  
 
 Beta MOs, Unrestricted
 -- Occupied --                  
-26.517 -26.504 -26.465 -26.142 -11.720  -1.899  -1.812  -1.742
  1 A     2 A     3 A     4 A     5 A     6 A     7 A     8 A                  
 -1.353  -1.088  -0.981  -0.963  -0.922  -0.835  -0.810  -0.808
  9 A    10 A    11 A    12 A    13 A    14 A    15 A    16 A                  
 -0.775  -0.767  -0.472  -0.472  -0.390
 17 A    18 A    19 A    20 A    21 A                                          
 -- Virtual --                   
 -0.074   0.285   0.320   0.359   0.586   0.609   0.635   0.653
 22 A    23 A    24 A    25 A    26 A    27 A    28 A    29 A                  
  1.206   1.220   1.243   1.275   1.276   1.307   1.496   1.502
 30 A    31 A    32 A    33 A    34 A    35 A    36 A    37 A                  
  1.508   1.537   1.543   1.554   1.622   1.625   1.656   1.826
 38 A    39 A    40 A    41 A    42 A    43 A    44 A    45 A                  
  1.836   1.861   1.968   1.986   2.000   2.029   2.036   2.064
 46 A    47 A    48 A    49 A    50 A    51 A    52 A    53 A                  
  2.174   2.201   2.253   2.264   2.300   2.300   2.316   2.322
 54 A    55 A    56 A    57 A    58 A    59 A    60 A    61 A                  
  2.358   2.569   2.717   2.766   2.996   3.019   3.266   3.308
 62 A    63 A    64 A    65 A    66 A    67 A    68 A    69 A                  
  3.373   4.001   4.456   4.499   4.628   4.973
 70 A    71 A    72 A    73 A    74 A    75 A                                  
 

--------------------------------------------------------------------------------
                                   HF Summary                                   
--------------------------------------------------------------------------------
  Energy:                                                 -435.3525259028 a.u.
  Dip. moment [a.u.]:                  [ -56.961885,  184.623855,    1.109633]
  Total dipole [Debye]:                                             491.102448
  <r^2> [a.u.]:                        [ 179.136159, 1048.896087,  111.072063]
  Total <r^2> [a.u.]:                                              1339.104309
--------------------------------------------------------------------------------

--------------------------------------------------------------------------------
                                 MP(2) Summary                                  
--------------------------------------------------------------------------------
  Energy contribution:                                      -0.8653473027 a.u.
  Total energy:                                           -436.2178732055 a.u.
  Dip. moment [a.u.]:                  [ -56.447521,  186.220693,    0.483164]
  Total dipole [Debye]:                                             494.594847
  <r^2> [a.u.]:                        [ 177.188315, 1056.208469,  110.255427]
  Total <r^2> [a.u.]:                                              1343.652210
--------------------------------------------------------------------------------
  Starting Davidson ... 
--------------------------------------------------------------------------------
   It NVec Conv  Avg. Norm  Max. Norm  Conv. states           Remark
--------------------------------------------------------------------------------
        20    0  2.044e-01  1.054e+00 10.9873 n n n n n n n n Guess.
    1   40    0  8.080e-02  1.027e+00 10.8087 n n n n n n n n 
    2   60    0  1.145e-02  1.393e-01 10.8060 n n n n n n n n 
    3   80    0  5.063e-03  5.551e-02 10.8059 n n n n n n n n 
    4  100    0  6.257e-03  9.018e-02 10.8059 n n n n n n n n 
    5   40    0  2.204e-03  3.171e-02 10.8059 n n n n n n n n Subspace collapsed.
    6   60    0  2.634e-03  3.737e-02 10.8059 n n n n n n n n 
    7   80    0  4.635e-03  6.584e-02 10.8059 n n n n n n n n 
    8  100    2  4.520e-03  7.096e-02 10.8059 y y n n n n n n 
    9   40    5  2.428e-03  3.581e-02 10.8059 y y y n n y y n Subspace collapsed.
   10   60    7  1.326e-03  1.942e-02 10.8059 y y y y n y y y 
   11   80    8  1.230e-03  2.096e-02 10.8059 y y y y y y y y 
   12  100   12  1.485e-03  2.323e-02 10.8059 y y y y y y y y 
   13   40   14  7.580e-04  1.194e-02 10.8059 y y y y y y y y Subspace collapsed.
   14   60   15  8.427e-04  1.224e-02 10.8059 y y y y y y y y 
   15   80   16  9.168e-04  1.407e-02 10.8059 y y y y y y y y 
   16  100   16  8.975e-04  1.355e-02 10.8059 y y y y y y y y 
   17   39   16  5.378e-04  8.038e-03 10.8059 y y y y y y y y Subspace collapsed.
   18   57   18  4.001e-04  6.157e-03 10.8059 y y y y y y y y 
   19   57   18  4.001e-04  6.157e-03 10.8059 y y y y y y y y 
   20   77   18  3.170e-04  5.144e-03 10.8059 y y y y y y y y 
   21   91   18  3.880e-04  6.395e-03 10.8059 y y y y y y y y 
   22  100   18  3.844e-04  6.374e-03 10.8059 y y y y y y y y 
   23   33   18  2.278e-04  3.793e-03 10.8059 y y y y y y y y Subspace collapsed.
   24   34   18  2.278e-04  3.793e-03 10.8059 y y y y y y y y 
   25   34   18  2.278e-04  3.793e-03 10.8059 y y y y y y y y 
   26   52   18  2.308e-04  3.475e-03 10.8059 y y y y y y y y 
   27   64   18  2.328e-04  3.379e-03 10.8059 y y y y y y y y 
   28   76   18  2.400e-04  3.688e-03 10.8059 y y y y y y y y 
   29   76   18  2.400e-04  3.688e-03 10.8059 y y y y y y y y 
   30   76   18  2.400e-04  3.688e-03 10.8059 y y y y y y y y 
   31   96   18  1.996e-04  3.378e-03 10.8059 y y y y y y y y 
   32   96   18  1.996e-04  3.378e-03 10.8059 y y y y y y y y 
   33   96   18  1.996e-04  3.378e-03 10.8059 y y y y y y y y 
   34  100   18  2.004e-04  3.389e-03 10.8059 y y y y y y y y 
   35   21   18  2.004e-04  3.389e-03 10.8059 y y y y y y y y Subspace collapsed.
   36   21   18  2.004e-04  3.389e-03 10.8059 y y y y y y y y 
   37   25   18  2.007e-04  3.398e-03 10.8059 y y y y y y y y 
   38   30   18  1.946e-04  3.274e-03 10.8059 y y y y y y y y 
   39   30   18  1.946e-04  3.274e-03 10.8059 y y y y y y y y 
   40   30   18  1.946e-04  3.274e-03 10.8059 y y y y y y y y 
   41   50   18  8.775e-05  1.249e-03 10.8059 y y y y y y y y 
   42   50   18  8.775e-05  1.249e-03 10.8059 y y y y y y y y 
   43   50   18  8.775e-05  1.249e-03 10.8059 y y y y y y y y 
   44   70   18  6.184e-05  9.595e-04 10.8059 y y y y y y y y 
   45   70   18  6.184e-05  9.595e-04 10.8059 y y y y y y y y 
   46   70   18  6.184e-05  9.595e-04 10.8059 y y y y y y y y 
   47   90   18  4.450e-05  7.659e-04 10.8059 y y y y y y y y 
   48   90   18  4.450e-05  7.659e-04 10.8059 y y y y y y y y 
   49   91   18  4.472e-05  7.692e-04 10.8059 y y y y y y y y 
   50   91   18  4.472e-05  7.692e-04 10.8059 y y y y y y y y 
   51   92   18  4.469e-05  7.680e-04 10.8059 y y y y y y y y 
   52   93   18  4.449e-05  7.636e-04 10.8059 y y y y y y y y 
   53   94   18  4.463e-05  7.646e-04 10.8059 y y y y y y y y 
   54   95   18  4.476e-05  7.653e-04 10.8059 y y y y y y y y 
   55   96   18  4.475e-05  7.652e-04 10.8059 y y y y y y y y 
   56   98   18  4.482e-05  7.645e-04 10.8059 y y y y y y y y 
   57  100   10  4.510e-05  7.710e-04 10.8059 n y y n y y n n 
   58   33   17  4.435e-05  7.565e-04 10.8059 n y y y y y y y Subspace collapsed.
   59   53   18  2.955e-05  4.414e-04 10.8059 y y y y y y y y 
--------------------------------------------------------------------------------
  Davidson Summary: 
 ------------------------------------------------------------
  State  0: excitation energy =  10.8059 a.u.   (converged)
  State  1: excitation energy =  10.8713 a.u.   (converged)
  State  2: excitation energy =  11.0542 a.u.   (converged)
  State  3: excitation energy =  11.1300 a.u.   (converged)
  State  4: excitation energy =  11.1334 a.u.   (converged)
  State  5: excitation energy =  11.1698 a.u.   (converged)
  State  6: excitation energy =  11.2082 a.u.   (converged)
  State  7: excitation energy =  11.2400 a.u.   (converged)
  State  8: excitation energy =  11.5138 a.u.   (converged)
  State  9: excitation energy =  11.5297 a.u.   (converged)
  State 10: excitation energy =  11.5373 a.u.   (converged)
  State 11: excitation energy =  11.5406 a.u.   (converged)
  State 12: excitation energy =  11.5485 a.u.   (converged)
  State 13: excitation energy =  11.5507 a.u.   (converged)
  State 14: excitation energy =  11.5567 a.u.   (converged)
  State 15: excitation energy =  11.5913 a.u.   (converged)
  State 16: excitation energy =  11.9823 a.u.   (converged)
  State 17: excitation energy =  11.9859 a.u.   (converged)
  State 18: excitation energy =  12.1653 a.u.   (not converged)
  State 19: excitation energy =  12.1699 a.u.   (not converged)
 ------------------------------------------------------------


--------------------------------------------------------------------------------
                             Excited State Summary
--------------------------------------------------------------------------------

  Excited state  1 (A)                                             [converged]
  ----------------------------------------------------------------------------
  Term symbol:  2 (-) A                                     R^2 =  4.58344e-07

  Total energy:                                           -425.4119965732 a.u.
  Excitation energy:                                             294.042857 eV

  Osc. strength:                                                      0.000000
  Trans. dip. moment [a.u.]:           [  -0.000000,   -0.000000,   -0.000000]
  <i|r^2|0> [a.u.]:                    [  -0.000000,   -0.000000,    0.000000]

  V1^2 = 0.9421, V2^2 = 0.0579

  Important amplitudes:
     core i     occ j      vir a      vir b          v   
    ------------------------------------------------------
     5 (A) B              22 (A) B                 0.6516
     5 (A) A              22 (A) A                -0.6516
    ------------------------------------------------------
  ----------------------------------------------------------------------------


  Excited state  2 (A)                                             [converged]
  ----------------------------------------------------------------------------
  Term symbol:  3 (-) A                                     R^2 =  2.02969e-08

  Total energy:                                           -425.3465633837 a.u.
  Excitation energy:                                             295.823385 eV

  Osc. strength:                                                      0.069377
  Trans. dip. moment [a.u.]:           [  -0.036532,   -0.085464,    0.030558]
  <i|r^2|0> [a.u.]:                    [   0.089182,   -0.851314,   -0.008991]

  V1^2 = 0.9316, V2^2 = 0.0684

  Important amplitudes:
     core i     occ j      vir a      vir b          v   
    ------------------------------------------------------
     5 (A) A              22 (A) A                -0.6596
     5 (A) B              22 (A) B                -0.6596
    ------------------------------------------------------
  ----------------------------------------------------------------------------


  Excited state  3 (A)                                             [converged]
  ----------------------------------------------------------------------------
  Term symbol:  4 (-) A                                     R^2 =  2.13868e-08

  Total energy:                                           -425.1636917320 a.u.
  Excitation energy:                                             300.799576 eV

  Osc. strength:                                                      0.000000
  Trans. dip. moment [a.u.]:           [  -0.000000,   -0.000000,   -0.000000]
  <i|r^2|0> [a.u.]:                    [  -0.000000,   -0.000000,    0.000000]

  V1^2 = 0.9432, V2^2 = 0.0568

  Important amplitudes:
     core i     occ j      vir a      vir b          v   
    ------------------------------------------------------
     5 (A) A              23 (A) A                 0.6077
     5 (A) B              23 (A) B                -0.6077
    ------------------------------------------------------
  ----------------------------------------------------------------------------


  Excited state  4 (A)                                             [converged]
  ----------------------------------------------------------------------------
  Term symbol:  5 (-) A                                     R^2 =  5.11860e-08

  Total energy:                                           -425.0878270564 a.u.
  Excitation energy:                                             302.863959 eV

  Osc. strength:                                                      0.103740
  Trans. dip. moment [a.u.]:           [  -0.038058,    0.074126,    0.083893]
  <i|r^2|0> [a.u.]:                    [   0.094180,    0.753017,   -0.040053]

  V1^2 = 0.9342, V2^2 = 0.0658

  Important amplitudes:
     core i     occ j      vir a      vir b          v   
    ------------------------------------------------------
     5 (A) B              23 (A) B                 0.6191
     5 (A) A              23 (A) A                 0.6191
    ------------------------------------------------------
  ----------------------------------------------------------------------------


  Excited state  5 (A)                                             [converged]
  ----------------------------------------------------------------------------
  Term symbol:  6 (-) A                                     R^2 =  2.85070e-08

  Total energy:                                           -425.0844622856 a.u.
  Excitation energy:                                             302.955519 eV

  Osc. strength:                                                      0.000000
  Trans. dip. moment [a.u.]:           [  -0.000000,   -0.000000,   -0.000000]
  <i|r^2|0> [a.u.]:                    [  -0.000000,   -0.000000,    0.000000]

  V1^2 = 0.9335, V2^2 = 0.0665

  Important amplitudes:
     core i     occ j      vir a      vir b          v   
    ------------------------------------------------------
     5 (A) A              24 (A) A                -0.5018
     5 (A) B              24 (A) B                 0.5018
    ------------------------------------------------------
  ----------------------------------------------------------------------------


  Excited state  6 (A)                                             [converged]
  ----------------------------------------------------------------------------
  Term symbol:  7 (-) A                                     R^2 =  3.36244e-08

  Total energy:                                           -425.0480768454 a.u.
  Excitation energy:                                             303.945617 eV

  Osc. strength:                                                      0.000000
  Trans. dip. moment [a.u.]:           [   0.000000,    0.000000,    0.000000]
  <i|r^2|0> [a.u.]:                    [   0.000000,    0.000000,   -0.000000]

  V1^2 = 0.9361, V2^2 = 0.0639

  Important amplitudes:
     core i     occ j      vir a      vir b          v   
    ------------------------------------------------------
     5 (A) B              25 (A) B                -0.4753
     5 (A) A              25 (A) A                 0.4753
    ------------------------------------------------------
  ----------------------------------------------------------------------------


  Excited state  7 (A)                                             [converged]
  ----------------------------------------------------------------------------
  Term symbol:  8 (-) A                                     R^2 =  1.11842e-07

  Total energy:                                           -425.0096794755 a.u.
  Excitation energy:                                             304.990462 eV

  Osc. strength:                                                      0.064998
  Trans. dip. moment [a.u.]:           [   0.029565,   -0.036542,    0.080556]
  <i|r^2|0> [a.u.]:                    [  -0.081125,   -0.387271,   -0.056515]

  V1^2 = 0.9189, V2^2 = 0.0811

  Important amplitudes:
     core i     occ j      vir a      vir b          v   
    ------------------------------------------------------
     5 (A) A              24 (A) A                -0.5324
     5 (A) B              24 (A) B                -0.5324
    ------------------------------------------------------
  ----------------------------------------------------------------------------


  Excited state  8 (A)                                             [converged]
  ----------------------------------------------------------------------------
  Term symbol:  9 (-) A                                     R^2 =  5.59859e-08

  Total energy:                                           -424.9778528155 a.u.
  Excitation energy:                                             305.856510 eV

  Osc. strength:                                                      0.080804
  Trans. dip. moment [a.u.]:           [  -0.101838,   -0.000882,   -0.020290]
  <i|r^2|0> [a.u.]:                    [   0.222200,   -0.023120,   -0.002554]

  V1^2 = 0.9232, V2^2 = 0.0768

  Important amplitudes:
     core i     occ j      vir a      vir b          v   
    ------------------------------------------------------
     5 (A) B              25 (A) B                -0.5208
     5 (A) A              25 (A) A                -0.5208
    ------------------------------------------------------
  ----------------------------------------------------------------------------


  Excited state  9 (A)                                             [converged]
  ----------------------------------------------------------------------------
  Term symbol:  10 (-) A                                    R^2 =  3.71773e-09

  Total energy:                                           -424.7040897502 a.u.
  Excitation energy:                                             313.305982 eV

  Osc. strength:                                                      0.000000
  Trans. dip. moment [a.u.]:           [  -0.000000,    0.000000,   -0.000000]
  <i|r^2|0> [a.u.]:                    [   0.000000,    0.000000,   -0.000000]

  V1^2 = 0.8756, V2^2 = 0.1244

  Important amplitudes:
     core i     occ j      vir a      vir b          v   
    ------------------------------------------------------
     5 (A) A              27 (A) A                 0.5038
     5 (A) B              27 (A) B                -0.5038
    ------------------------------------------------------
  ----------------------------------------------------------------------------


  Excited state 10 (A)                                             [converged]
  ----------------------------------------------------------------------------
  Term symbol:  11 (-) A                                    R^2 =  2.09618e-07

  Total energy:                                           -424.6881320079 a.u.
  Excitation energy:                                             313.740214 eV

  Osc. strength:                                                      0.000000
  Trans. dip. moment [a.u.]:           [  -0.000000,   -0.000000,   -0.000000]
  <i|r^2|0> [a.u.]:                    [   0.000000,   -0.000000,    0.000000]

  V1^2 = 0.8698, V2^2 = 0.1302

  Important amplitudes:
     core i     occ j      vir a      vir b          v   
    ------------------------------------------------------
     5 (A) A              28 (A) A                 0.4271
     5 (A) B              28 (A) B                -0.4271
    ------------------------------------------------------
  ----------------------------------------------------------------------------


  Excited state 11 (A)                                             [converged]
  ----------------------------------------------------------------------------
  Term symbol:  12 (-) A                                    R^2 =  2.86000e-08

  Total energy:                                           -424.6805700575 a.u.
  Excitation energy:                                             313.945985 eV

  Osc. strength:                                                      0.000000
  Trans. dip. moment [a.u.]:           [  -0.000000,   -0.000000,   -0.000000]
  <i|r^2|0> [a.u.]:                    [  -0.000000,   -0.000000,    0.000000]

  V1^2 = 0.8689, V2^2 = 0.1311

  Important amplitudes:
     core i     occ j      vir a      vir b          v   
    ------------------------------------------------------
     5 (A) B              26 (A) B                 0.4747
     5 (A) A              26 (A) A                -0.4747
    ------------------------------------------------------
  ----------------------------------------------------------------------------


  Excited state 12 (A)                                             [converged]
  ----------------------------------------------------------------------------
  Term symbol:  13 (-) A                                    R^2 =  6.49338e-08

  Total energy:                                           -424.6772461002 a.u.
  Excitation energy:                                             314.036435 eV

  Osc. strength:                                                      0.033224
  Trans. dip. moment [a.u.]:           [   0.036420,    0.004867,   -0.054481]
  <i|r^2|0> [a.u.]:                    [  -0.071821,    0.058496,    0.041675]

  V1^2 = 0.8772, V2^2 = 0.1228

  Important amplitudes:
     core i     occ j      vir a      vir b          v   
    ------------------------------------------------------
     5 (A) B              27 (A) B                 0.5379
     5 (A) A              27 (A) A                 0.5379
    ------------------------------------------------------
  ----------------------------------------------------------------------------


  Excited state 13 (A)                                             [converged]
  ----------------------------------------------------------------------------
  Term symbol:  14 (-) A                                    R^2 =  4.33249e-08

  Total energy:                                           -424.6693684662 a.u.
  Excitation energy:                                             314.250796 eV

  Osc. strength:                                                      0.000000
  Trans. dip. moment [a.u.]:           [  -0.000000,   -0.000000,   -0.000000]
  <i|r^2|0> [a.u.]:                    [   0.000000,   -0.000000,    0.000000]

  V1^2 = 0.8550, V2^2 = 0.1450

  Important amplitudes:
     core i     occ j      vir a      vir b          v   
    ------------------------------------------------------
     5 (A) B              29 (A) B                -0.5133
     5 (A) A              29 (A) A                 0.5133
    ------------------------------------------------------
  ----------------------------------------------------------------------------


  Excited state 14 (A)                                             [converged]
  ----------------------------------------------------------------------------
  Term symbol:  15 (-) A                                    R^2 =  1.43367e-08

  Total energy:                                           -424.6671343816 a.u.
  Excitation energy:                                             314.311588 eV

  Osc. strength:                                                      0.035479
  Trans. dip. moment [a.u.]:           [   0.040581,    0.042960,    0.033391]
  <i|r^2|0> [a.u.]:                    [  -0.085886,    0.437531,   -0.014296]

  V1^2 = 0.8720, V2^2 = 0.1280

  Important amplitudes:
     core i     occ j      vir a      vir b          v   
    ------------------------------------------------------
     5 (A) B              26 (A) B                -0.4552
     5 (A) A              26 (A) A                -0.4552
    ------------------------------------------------------
  ----------------------------------------------------------------------------


  Excited state 15 (A)                                             [converged]
  ----------------------------------------------------------------------------
  Term symbol:  16 (-) A                                    R^2 =  1.37246e-08

  Total energy:                                           -424.6612031524 a.u.
  Excitation energy:                                             314.472985 eV

  Osc. strength:                                                      0.035046
  Trans. dip. moment [a.u.]:           [  -0.051200,    0.039642,   -0.018865]
  <i|r^2|0> [a.u.]:                    [   0.118058,    0.403825,    0.014358]

  V1^2 = 0.8740, V2^2 = 0.1260

  Important amplitudes:
     core i     occ j      vir a      vir b          v   
    ------------------------------------------------------
     5 (A) A              26 (A) A                -0.3453
     5 (A) B              26 (A) B                -0.3453
    ------------------------------------------------------
  ----------------------------------------------------------------------------


  Excited state 16 (A)                                             [converged]
  ----------------------------------------------------------------------------
  Term symbol:  17 (-) A                                    R^2 =  1.44977e-07

  Total energy:                                           -424.6266085038 a.u.
  Excitation energy:                                             315.414354 eV

  Osc. strength:                                                      0.016164
  Trans. dip. moment [a.u.]:           [   0.011131,    0.039108,   -0.020940]
  <i|r^2|0> [a.u.]:                    [  -0.044313,    0.373576,   -0.008674]

  V1^2 = 0.8597, V2^2 = 0.1403

  Important amplitudes:
     core i     occ j      vir a      vir b          v   
    ------------------------------------------------------
     5 (A) A              29 (A) A                 0.5497
     5 (A) B              29 (A) B                 0.5497
    ------------------------------------------------------
  ----------------------------------------------------------------------------


  Excited state 17 (A)                                             [converged]
  ----------------------------------------------------------------------------
  Term symbol:  18 (-) A                                    R^2 =  3.48848e-08

  Total energy:                                           -424.2355455702 a.u.
  Excitation energy:                                             326.055717 eV

  Osc. strength:                                                      0.000000
  Trans. dip. moment [a.u.]:           [  -0.000000,   -0.000000,   -0.000000]
  <i|r^2|0> [a.u.]:                    [  -0.000000,   -0.000000,    0.000000]

  V1^2 = 0.0413, V2^2 = 0.9587

  Important amplitudes:
     core i     occ j      vir a      vir b          v   
    ------------------------------------------------------
     5 (A) B   21 (A) A   22 (A) A   22 (A) B      0.4864
     5 (A) A   21 (A) B   22 (A) A   22 (A) B      0.4864
    ------------------------------------------------------
  ----------------------------------------------------------------------------


  Excited state 18 (A)                                             [converged]
  ----------------------------------------------------------------------------
  Term symbol:  19 (-) A                                    R^2 =  3.04903e-07

  Total energy:                                           -424.2319626281 a.u.
  Excitation energy:                                             326.153214 eV

  Osc. strength:                                                      0.001233
  Trans. dip. moment [a.u.]:           [  -0.004245,   -0.010996,    0.003929]
  <i|r^2|0> [a.u.]:                    [   0.012731,   -0.107582,    0.001175]

  V1^2 = 0.0459, V2^2 = 0.9541

  Important amplitudes:
     core i     occ j      vir a      vir b          v   
    ------------------------------------------------------
     5 (A) A   21 (A) B   22 (A) A   22 (A) B      0.4848
     5 (A) B   21 (A) A   22 (A) A   22 (A) B     -0.4848
    ------------------------------------------------------
  ----------------------------------------------------------------------------


  Excited state 19 (A)                                         [not converged]
  ----------------------------------------------------------------------------
  Term symbol:  20 (-) A                                    R^2 =  3.93060e-04

  Total energy:                                           -424.0525959349 a.u.
  Excitation energy:                                             331.034030 eV


  V1^2 = 0.8494, V2^2 = 0.1506

  Important amplitudes:
     core i     occ j      vir a      vir b          v   
    ------------------------------------------------------
     5 (A) A              30 (A) A                -0.5643
     5 (A) B              30 (A) B                 0.5641
    ------------------------------------------------------
  ----------------------------------------------------------------------------


  Excited state 20 (A)                                         [not converged]
  ----------------------------------------------------------------------------
  Term symbol:  21 (-) A                                    R^2 =  4.41395e-04

  Total energy:                                           -424.0479820097 a.u.
  Excitation energy:                                             331.159581 eV


  V1^2 = 0.8493, V2^2 = 0.1507

  Important amplitudes:
     core i     occ j      vir a      vir b          v   
    ------------------------------------------------------
     5 (A) B              30 (A) B                -0.5545
     5 (A) A              30 (A) A                -0.5543
    ------------------------------------------------------
  ----------------------------------------------------------------------------


--------------------------------------------------------------------------------
  Time of ADC calculation:  CPU 3524.89 s  wall 2166.57 s
================================================================================
 
 --------------------------------------------------------------
 
                    Orbital Energies (a.u.)
 --------------------------------------------------------------
 
 Alpha MOs
 -- Occupied --
-26.517 -26.504 -26.465 -26.142 -11.720  -1.899  -1.812  -1.742
 -1.353  -1.088  -0.981  -0.963  -0.922  -0.835  -0.810  -0.808
 -0.775  -0.767  -0.472  -0.472  -0.390
 -- Virtual --
 -0.074   0.285   0.320   0.359   0.586   0.609   0.635   0.653
  1.206   1.220   1.243   1.275   1.276   1.307   1.496   1.502
  1.508   1.537   1.543   1.554   1.622   1.625   1.656   1.826
  1.836   1.861   1.968   1.986   2.000   2.029   2.036   2.064
  2.174   2.201   2.253   2.264   2.300   2.300   2.316   2.322
  2.358   2.569   2.717   2.766   2.996   3.019   3.266   3.308
  3.373   4.001   4.456   4.499   4.628   4.973
 
 Beta MOs
 -- Occupied --
-26.517 -26.504 -26.465 -26.142 -11.720  -1.899  -1.812  -1.742
 -1.353  -1.088  -0.981  -0.963  -0.922  -0.835  -0.810  -0.808
 -0.775  -0.767  -0.472  -0.472  -0.390
 -- Virtual --
 -0.074   0.285   0.320   0.359   0.586   0.609   0.635   0.653
  1.206   1.220   1.243   1.275   1.276   1.307   1.496   1.502
  1.508   1.537   1.543   1.554   1.622   1.625   1.656   1.826
  1.836   1.861   1.968   1.986   2.000   2.029   2.036   2.064
  2.174   2.201   2.253   2.264   2.300   2.300   2.316   2.322
  2.358   2.569   2.717   2.766   2.996   3.019   3.266   3.308
  3.373   4.001   4.456   4.499   4.628   4.973
 --------------------------------------------------------------
 
          Ground-State Mulliken Net Atomic Charges

     Atom                 Charge (a.u.)    Spin (a.u.)
  --------------------------------------------------------
      1 C                     1.146345       0.000000
      2 F                    -0.140241       0.000000
      3 F                    -0.268062       0.000000
      4 F                    -0.552366       0.000000
      5 F                    -0.185677       0.000000
  --------------------------------------------------------
  Sum of atomic charges =     0.000000
  Sum of spin   charges =     0.000000

 -----------------------------------------------------------------
                    Cartesian Multipole Moments
 -----------------------------------------------------------------
    Charge (ESU x 10^10)
                 0.0000
    Dipole Moment (Debye)
         X       2.4389      Y       5.9498      Z      -2.7035
       Tot       6.9755
    Quadrupole Moments (Debye-Ang)
        XX     -27.9851     XY      -1.7855     YY      -7.1483
        XZ       3.2331     YZ      -2.6482     ZZ     -25.2238
    Octopole Moments (Debye-Ang^2)
       XXX      58.3614    XXY     -54.5692    XYY      11.2927
       YYY    -122.8869    XXZ      -4.6762    XYZ       2.2321
       YYZ      -6.8889    XZZ      19.3308    YZZ     -55.2380
       ZZZ      -2.7827
    Hexadecapole Moments (Debye-Ang^3)
      XXXX    -168.5187   XXXY     101.8292   XXYY    -185.6956
      XYYY      88.8606   YYYY    -867.4314   XXXZ      14.1780
      XXYZ       4.5205   XYYZ       6.7410   YYYZ       0.5676
      XXZZ     -45.0689   XYZZ      34.0050   YYZZ    -177.1776
      XZZZ      10.5329   YZZZ      19.7451   ZZZZ     -93.7710
 -----------------------------------------------------------------
Archival summary:
1\1\tp-linux1\SP\HF\6-31G*\41\thomas\FriMar1714:04:512017FriMar1714:04:512017\0\\#,HF,6-31G*,\\0,1\C\F,1,1.23626\F,1,1.2736,2,116.831\F,1,1.36791,2,111.976,3,127.333,0\F,1,2.76632,2,101.755,3,-118.841,0\\HF=-435.352526\\@

 Total job time:  2171.03s(wall), 3538.31s(cpu) 
 Fri Mar 17 14:04:51 2017

        *************************************************************
        *                                                           *
        *  Thank you very much for using Q-Chem.  Have a nice day.  *
        *                                                           *
        *************************************************************


0 sent ACK to 0 
now end server 0 ... 
cleanup process ... done
